Compiler and run-time data
===========================================================================
RASPA 2.0.47
Compiled as a 64-bits application
Compiler: gcc 4.8.5 20150623 (Red Hat 4.8.5-44)
Compile Date = Mar 22 2022, Compile Time = 16:04:55

Mon Sep  8 13:49:31 2025
Simulation started on Monday, September 08.
The start time was 01:49 PM.

Hostname:    ga02
OS type:     Linux on x86_64
OS release:  4.18.0-425.3.1.el8.x86_64
OS version:  #1 SMP Wed Nov 9 20:13:27 UTC 2022

Simulation
===========================================================================
Dimensions: 3
Random number seed: 1757306971
RASPA directory set to: /home/yongsang/PSID_SIMULATION_TOOLS/RASPA
String appended to output-files: 
Number of cycles: 20000
Number of initializing cycles: 0
Number of equilibration cycles: 0
Print every: 1000
Triclinic boundary condition applied
Timestep: 0.000500
	Degrees of freedom:                        0
	Translational Degrees of freedom:          0
	Rotational Degrees of freedom:             0
	Degrees of freedom Framework:              0


Mutual consistent basic set of units:
======================================
Unit of temperature: Kelvin
Unit of length:      1e-10 [m]
Unit of time:        1e-12 [s]
Unit of mass:        1.66054e-27 [kg]
Unit of charge:      1.60218e-19 [C/particle]

Derived units and their conversion factors:
===========================================
Unit of energy:              1.66054e-23 [J]
Unit of force:               1.66054e-13 [N]
Unit of pressure:            1.66054e+07 [Pa]
Unit of velocity:            100 [m/s]
Unit of acceleration:        1e-08 [m^2/s]
Unit of diffusion:           1e-08 [m^2/s]
Unit of dipole moment:       1.60218e-29 [C.m]
Unit of electric potential:  0.000103643 [V]
Unit of electric field:      1.03643e+06 [V]
Unit of polarizability:      1.54587e-35 [-]
Unit of Coulomb potential:   167101.0800066561  [K]
Unit of dielectric constant: 0.0000154587       [s^2 C^2/(kg m^3)]
Unit of wave vectors:        5.3088374589       [cm^1]
Boltzmann constant:          0.8314464919       [-]

Internal conversion factors:
===========================================
Energy to Kelvin:                                    1.2027242847
FH correction factor                                 2.0211930949
Heat capacity conversion factor:                    10.0000088723
From Debye to internal units:                        4.8032067991
Isothermal compressibility conversion factor:        0.0000000602

Energy conversion factors:
===========================================
From mdyne/A to kcal/mol/A^2:           143.933
From mdyne/A to kj/mol/A^2:             602.214
From mdyne/A to K/A^2:                  72429.7
From mdyne A/rad^2 to kcal/mol/deg^2:   0.0438444


Properties computed
===========================================================================
Movies: no
Radial Distribution Function: no
Number of molecules GCMC histogram: no
Histogram of the molecule positions: no
Free energy profiles: no
Pore Size Distribution Function: no
End-to-end distance: no
Histogram of the energy of the system: no
Compute thermodynamic factors: no
Framework spacing histograms: no
Residence times histograms: no
Distance histograms: no
Bend Angle histograms: no
Dihedral angle histograms: no
Angle between planes histograms: no
Molecule properties: no
Infra-red spectra: no
Mean-squared displacement using modified order-N algorithm: no
Velocity-autocorrelation function modified order-N algorithm: no
Rotational velocity-autocorrelation function modified order-N algorithm: no
Molecular orientation-autocorrelation function modified order-N algorithm: no
Bond orientation-autocorrelation function modified order-N algorithm: no
Mean-squared displacement (conventional algorithm): no
Velocity-autocorrelation function (conventional algorithm): no
3D density grid for adsorbates: no
Compute cation an/or adsorption sites: no
dcTST snapshots: no
Compute pressure and stress: no


VTK
===========================================================================
VTK fractional-range position framework atoms: [-0.001000,1.001000] [-0.001000,1.001000] [-0.001000,1.001000]
VTK fractional-range position framework bonds: [-0.151000,1.151000] [-0.151000,1.151000] [-0.151000,1.151000]
VTK fractional-range com-position adsorbate molecules: [-0.101000,1.101000] [-0.101000,1.101000] [-0.101000,1.101000]
VTK fractional-range com-position cation molecules: [-0.101000,1.101000] [-0.101000,1.101000] [-0.101000,1.101000]
	3D free energy grid made for the full simulation-cell


Thermo/Baro-stat NHC parameters
===========================================================================
External temperature: 298 [K]
Beta: 0.00403598 [energy unit]
External Pressure: 0 [Pa]


Thermostat chain-length: 3
Timescale parameter for thermostat: 0.150000 [ps]
Barostat chain-length:   3
Timescale parameter for barostat:   0.150000 [ps]

Number of Yoshida-Suzuki decomposition steps: 5
Number of respa steps: 5


Method and settings for electrostatics
===============================================================================
Dielectric constant of the medium : 1.000000
Charge from charge-equilibration: no
Ewald summation is used (exact solution of a periodic system)
Relative precision                : 1e-06
Alpha convergence parameter       : 0.265058
kvec (x,y,z)                      : 10 10 10


CFC-RXMC parameters
===========================================================================
Number of reactions: 0


Rattle parameters
===========================================================================
Distance constraint type: r^2-r^2_0
Bend angle constraint type: theta-theta_0
Dihedral angle constraint type: phi-phi_0
Inversion-bend angle constraint type: chi-chi_0
Out-of-plane distance constraint type: r-r_0


Spectra parameters
===========================================================================
Compute normal modes: no


Minimization parameters
===========================================================================
Generalized coordinates are: Cartesian center-of-mass, elements of the orientational matrix p1,p2,p3 and strain
Potential derivatives are evaluated: analytically
Translation of the system is removed from the generalized Hessian: no
Rotation of the system is removed from the generalized Hessian: no
Maximum step-length: 0.3
Convergence factor: 1
Maximum number of minimization steps: 10000
Use gradients in the line-minimizations: yes
RMS gradient tolerance: 1e-06
Maximum gradient tolerance: 1e-06

Distance constraints: 0
Angle constraints: 0
Dihedral constraints: 0

Improper dihedral constraints: 0

Inversion-bend constraints: 0

Out-of-plane constraints: 0

Harmonic distance constraints: 0
Harmonic angle constraints: 0
Harmonic dihedral constraints: 0

Dihedral mid-point measurements: 0

All framework atoms are fixed

Fixed adsorbate atoms:  
Fixed adsorbate groups (center-of-mass):  
Fixed adsorbate groups (orientation):  

Fixed cation atoms:  
Fixed cation groups (center-of-mass):  
Fixed cation groups (orientation):  


dcTST parameters
===========================================================================
Free energy profiles computed: no
Free energy profiles written every 5000 cycles
Free energy mapping: mapped to a,b,c-coordinates
BarrierPosition:       0.0000000000       0.0000000000       0.0000000000
BarrierNormal:         0.0000000000       0.0000000000       0.0000000000
Start with a molecule on top of the barrier: no
Maximum distance to barrier (e.g. distance to minumum free energy):       0.0000000000 [A]
Maximum trajectory time:      10.0000000000 [ps]
Each configuration is used with 5 different initial velocities


Cbmc parameters
===========================================================================
Biasing method: using only the VDW part
Number of trial positions:                                       10
Number of trial positions (reinsertion):                         10
Number of trial positions (partial reinsertion):                 10
Number of trial positions (identity-change):                     10
Number of trial positions (Gibbs particle transfer):             10
Number of trial positions (insertion/deletion):                  10
Number of trial positions (Widom insertion):                     10
Number of trial positions coupled Torsion-selection:             100
Number of trial positions first bead:                            10
Number of trial positions first bead (reinsertion):              10
Number of trial positions first bead (partial reinsertion):      10
Number of trial positions first bead (identity-change):          10
Number of trial positions first bead (Gibbs particle transfer):  10
Number of trial positions first bead (insertion/deletion):       10
Number of trial positions first bead (Widom insertion):          10
Number of trial moves per open bead:                             150
Target acceptance ratio small-mc scheme:                         0.400000
Energy overlap criteria:                                         1e+07
Minimal Rosenbluth factor:                                       1e-150


Pseudo atoms: 45
===========================================================================
Pseudo Atom[   0] Name UNIT     Oxidation:          Element: H    pdb-name: H    Scat. Types:   1   1 Mass=1.000000000  B-factor:0.000   
                 Charge=1.000000000          Polarization=0.000000000  [A^3] (considered a charged atom and no polarization)  Interactions: yes
                 Anisotropic factor:    0.000 [-] (Absolute), Radius:    1.000 [A], Framework-atom:  no
Pseudo Atom[   1] Name He       Oxidation: +0       Element: He   pdb-name: He   Scat. Types:   3   2 Mass=4.002602000  B-factor:1.000   
                 Charge=0.000000000          Polarization=0.000000000  [A^3] (considered a chargeless atom and no polarization)  Interactions: yes
                 Anisotropic factor:    0.000 [-] (Relative), Radius:    1.000 [A], Framework-atom:  no
Pseudo Atom[   2] Name C_co2    Oxidation: +0       Element: C    pdb-name: C    Scat. Types:   7   6 Mass=12.000000000 B-factor:1.000   
                 Charge=0.651200000          Polarization=0.000000000  [A^3] (considered a charged atom and no polarization)  Interactions: yes
                 Anisotropic factor:    0.000 [-] (Relative), Radius:    0.720 [A], Framework-atom:  no
Pseudo Atom[   3] Name O_co2    Oxidation: +0       Element: O    pdb-name: O    Scat. Types:   9   8 Mass=15.999400000 B-factor:1.000   
                 Charge=-0.325600000         Polarization=0.000000000  [A^3] (considered a charged atom and no polarization)  Interactions: yes
                 Anisotropic factor:    0.000 [-] (Relative), Radius:    0.680 [A], Framework-atom:  no
Pseudo Atom[   4] Name O_o2     Oxidation: +0       Element: O    pdb-name: O    Scat. Types:   9   8 Mass=15.999400000 B-factor:1.000   
                 Charge=-0.112000000         Polarization=0.000000000  [A^3] (considered a charged atom and no polarization)  Interactions: yes
                 Anisotropic factor:    0.000 [-] (Relative), Radius:    0.700 [A], Framework-atom:  no
Pseudo Atom[   5] Name O_com    Oxidation: +0       Element: -    pdb-name: O    Scat. Types:   0   8 Mass=0.000000000  B-factor:1.000   
                 Charge=0.224000000          Polarization=0.000000000  [A^3] (considered a charged atom and no polarization)  Interactions: yes
                 Anisotropic factor:    0.000 [-] (Relative), Radius:    0.700 [A], Framework-atom:  no
Pseudo Atom[   6] Name N_n2     Oxidation: +0       Element: N    pdb-name: N    Scat. Types:   8   7 Mass=14.006740000 B-factor:1.000   
                 Charge=-0.405000000         Polarization=0.000000000  [A^3] (considered a charged atom and no polarization)  Interactions: yes
                 Anisotropic factor:    0.000 [-] (Relative), Radius:    0.700 [A], Framework-atom:  no
Pseudo Atom[   7] Name N_com    Oxidation: +0       Element: -    pdb-name: N    Scat. Types:   0   7 Mass=0.000000000  B-factor:1.000   
                 Charge=0.810000000          Polarization=0.000000000  [A^3] (considered a charged atom and no polarization)  Interactions: yes
                 Anisotropic factor:    0.000 [-] (Relative), Radius:    0.700 [A], Framework-atom:  no
Pseudo Atom[   8] Name Ar       Oxidation: +0       Element: Ar   pdb-name: Ar   Scat. Types:  19  18 Mass=39.948000000 B-factor:1.000   
                 Charge=0.000000000          Polarization=0.000000000  [A^3] (considered a chargeless atom and no polarization)  Interactions: yes
                 Anisotropic factor:    0.000 [-] (Relative), Radius:    0.700 [A], Framework-atom:  no
Pseudo Atom[   9] Name CH4      Oxidation: +0       Element: C    pdb-name: C    Scat. Types:   7   6 Mass=16.042460000 B-factor:1.000   
                 Charge=0.000000000          Polarization=0.000000000  [A^3] (considered a chargeless atom and no polarization)  Interactions: yes
                 Anisotropic factor:    0.000 [-] (Relative), Radius:    1.000 [A], Framework-atom:  no
Pseudo Atom[  10] Name CH3      Oxidation: +0       Element: C    pdb-name: C    Scat. Types:   7   6 Mass=15.034520000 B-factor:1.000   
                 Charge=0.000000000          Polarization=0.000000000  [A^3] (considered a chargeless atom and no polarization)  Interactions: yes
                 Anisotropic factor:    0.000 [-] (Relative), Radius:    1.000 [A], Framework-atom:  no
Pseudo Atom[  11] Name CH2      Oxidation: +0       Element: C    pdb-name: C    Scat. Types:   7   6 Mass=14.026580000 B-factor:1.000   
                 Charge=0.000000000          Polarization=0.000000000  [A^3] (considered a chargeless atom and no polarization)  Interactions: yes
                 Anisotropic factor:    0.000 [-] (Relative), Radius:    1.000 [A], Framework-atom:  no
Pseudo Atom[  12] Name CH       Oxidation: +0       Element: C    pdb-name: C    Scat. Types:   7   6 Mass=13.018640000 B-factor:1.000   
                 Charge=0.000000000          Polarization=0.000000000  [A^3] (considered a chargeless atom and no polarization)  Interactions: yes
                 Anisotropic factor:    0.000 [-] (Relative), Radius:    1.000 [A], Framework-atom:  no
Pseudo Atom[  13] Name C        Oxidation: +0       Element: C    pdb-name: C    Scat. Types:   7   6 Mass=12.000000000 B-factor:1.000   
                 Charge=0.000000000          Polarization=0.000000000  [A^3] (considered a chargeless atom and no polarization)  Interactions: yes
                 Anisotropic factor:    0.000 [-] (Relative), Radius:    1.000 [A], Framework-atom:  no
Pseudo Atom[  14] Name Hw       Oxidation: +0       Element: H    pdb-name: H    Scat. Types:   1   1 Mass=1.008000000  B-factor:1.000   
                 Charge=0.556400000          Polarization=0.000000000  [A^3] (considered a charged atom and no polarization)  Interactions: yes
                 Anisotropic factor:    0.000 [-] (Relative), Radius:    0.700 [A], Framework-atom:  no
Pseudo Atom[  15] Name Ow       Oxidation: +0       Element: O    pdb-name: O    Scat. Types:   9   8 Mass=15.999400000 B-factor:1.000   
                 Charge=0.000000000          Polarization=0.000000000  [A^3] (considered a chargeless atom and no polarization)  Interactions: yes
                 Anisotropic factor:    0.000 [-] (Relative), Radius:    0.680 [A], Framework-atom:  no
Pseudo Atom[  16] Name Mw       Oxidation: +0       Element: -    pdb-name: M    Scat. Types:   0  12 Mass=0.000000000  B-factor:1.000   
                 Charge=-1.112800000         Polarization=0.000000000  [A^3] (considered a charged atom and no polarization)  Interactions:  no
                 Anisotropic factor:    0.000 [-] (Relative), Radius:    0.700 [A], Framework-atom:  no
Pseudo Atom[  17] Name C1       Oxidation:          Element: C    pdb-name: C    Scat. Types:   7   6 Mass=12.010735897 B-factor:0.000   
                 Charge=0.515183000    (av)  Polarization=1.760000000  [A^3] (considered a charged atom and no polarization)  Interactions: yes
                 Anisotropic factor:    0.000 [-] (Absolute), Radius:    0.750 [A], Framework-atom: yes (charge from structure file)
Pseudo Atom[  18] Name C2       Oxidation:          Element: C    pdb-name: C    Scat. Types:   7   6 Mass=12.010735897 B-factor:0.000   
                 Charge=0.515181000    (av)  Polarization=1.760000000  [A^3] (considered a charged atom and no polarization)  Interactions: yes
                 Anisotropic factor:    0.000 [-] (Absolute), Radius:    0.750 [A], Framework-atom: yes (charge from structure file)
Pseudo Atom[  19] Name C3       Oxidation:          Element: C    pdb-name: C    Scat. Types:   7   6 Mass=12.010735897 B-factor:0.000   
                 Charge=0.515165000    (av)  Polarization=1.760000000  [A^3] (considered a charged atom and no polarization)  Interactions: yes
                 Anisotropic factor:    0.000 [-] (Absolute), Radius:    0.750 [A], Framework-atom: yes (charge from structure file)
Pseudo Atom[  20] Name C4       Oxidation:          Element: C    pdb-name: C    Scat. Types:   7   6 Mass=12.010735897 B-factor:0.000   
                 Charge=0.515180000    (av)  Polarization=1.760000000  [A^3] (considered a charged atom and no polarization)  Interactions: yes
                 Anisotropic factor:    0.000 [-] (Absolute), Radius:    0.750 [A], Framework-atom: yes (charge from structure file)
Pseudo Atom[  21] Name C5       Oxidation:          Element: C    pdb-name: C    Scat. Types:   7   6 Mass=12.010735897 B-factor:0.000   
                 Charge=0.515175000    (av)  Polarization=1.760000000  [A^3] (considered a charged atom and no polarization)  Interactions: yes
                 Anisotropic factor:    0.000 [-] (Absolute), Radius:    0.750 [A], Framework-atom: yes (charge from structure file)
Pseudo Atom[  22] Name C6       Oxidation:          Element: C    pdb-name: C    Scat. Types:   7   6 Mass=12.010735897 B-factor:0.000   
                 Charge=0.515167000    (av)  Polarization=1.760000000  [A^3] (considered a charged atom and no polarization)  Interactions: yes
                 Anisotropic factor:    0.000 [-] (Absolute), Radius:    0.750 [A], Framework-atom: yes (charge from structure file)
Pseudo Atom[  23] Name C7       Oxidation:          Element: C    pdb-name: C    Scat. Types:   7   6 Mass=12.010735897 B-factor:0.000   
                 Charge=0.515180000    (av)  Polarization=1.760000000  [A^3] (considered a charged atom and no polarization)  Interactions: yes
                 Anisotropic factor:    0.000 [-] (Absolute), Radius:    0.750 [A], Framework-atom: yes (charge from structure file)
Pseudo Atom[  24] Name C8       Oxidation:          Element: C    pdb-name: C    Scat. Types:   7   6 Mass=12.010735897 B-factor:0.000   
                 Charge=0.515174000    (av)  Polarization=1.760000000  [A^3] (considered a charged atom and no polarization)  Interactions: yes
                 Anisotropic factor:    0.000 [-] (Absolute), Radius:    0.750 [A], Framework-atom: yes (charge from structure file)
Pseudo Atom[  25] Name K1       Oxidation:          Element: K    pdb-name: K    Scat. Types:  20  19 Mass=39.098301124 B-factor:0.000   
                 Charge=0.912191000    (av)  Polarization=43.400000000 [A^3] (considered a charged atom and no polarization)  Interactions: yes
                 Anisotropic factor:    0.000 [-] (Absolute), Radius:    2.000 [A], Framework-atom: yes (charge from structure file)
Pseudo Atom[  26] Name K2       Oxidation:          Element: K    pdb-name: K    Scat. Types:  20  19 Mass=39.098301124 B-factor:0.000   
                 Charge=0.912193000    (av)  Polarization=43.400000000 [A^3] (considered a charged atom and no polarization)  Interactions: yes
                 Anisotropic factor:    0.000 [-] (Absolute), Radius:    2.000 [A], Framework-atom: yes (charge from structure file)
Pseudo Atom[  27] Name O1       Oxidation:          Element: O    pdb-name: O    Scat. Types:   9   8 Mass=15.999404927 B-factor:0.000   
                 Charge=-0.616798000   (av)  Polarization=0.802000000  [A^3] (considered a charged atom and no polarization)  Interactions: yes
                 Anisotropic factor:    0.000 [-] (Absolute), Radius:    0.640 [A], Framework-atom: yes (charge from structure file)
Pseudo Atom[  28] Name O2       Oxidation:          Element: O    pdb-name: O    Scat. Types:   9   8 Mass=15.999404927 B-factor:0.000   
                 Charge=-0.628510000   (av)  Polarization=0.802000000  [A^3] (considered a charged atom and no polarization)  Interactions: yes
                 Anisotropic factor:    0.000 [-] (Absolute), Radius:    0.640 [A], Framework-atom: yes (charge from structure file)
Pseudo Atom[  29] Name O3       Oxidation:          Element: O    pdb-name: O    Scat. Types:   9   8 Mass=15.999404927 B-factor:0.000   
                 Charge=-0.616803000   (av)  Polarization=0.802000000  [A^3] (considered a charged atom and no polarization)  Interactions: yes
                 Anisotropic factor:    0.000 [-] (Absolute), Radius:    0.640 [A], Framework-atom: yes (charge from structure file)
Pseudo Atom[  30] Name O4       Oxidation:          Element: O    pdb-name: O    Scat. Types:   9   8 Mass=15.999404927 B-factor:0.000   
                 Charge=-0.616798000   (av)  Polarization=0.802000000  [A^3] (considered a charged atom and no polarization)  Interactions: yes
                 Anisotropic factor:    0.000 [-] (Absolute), Radius:    0.640 [A], Framework-atom: yes (charge from structure file)
Pseudo Atom[  31] Name O5       Oxidation:          Element: O    pdb-name: O    Scat. Types:   9   8 Mass=15.999404927 B-factor:0.000   
                 Charge=-0.628515000   (av)  Polarization=0.802000000  [A^3] (considered a charged atom and no polarization)  Interactions: yes
                 Anisotropic factor:    0.000 [-] (Absolute), Radius:    0.640 [A], Framework-atom: yes (charge from structure file)
Pseudo Atom[  32] Name O6       Oxidation:          Element: O    pdb-name: O    Scat. Types:   9   8 Mass=15.999404927 B-factor:0.000   
                 Charge=-0.616795000   (av)  Polarization=0.802000000  [A^3] (considered a charged atom and no polarization)  Interactions: yes
                 Anisotropic factor:    0.000 [-] (Absolute), Radius:    0.640 [A], Framework-atom: yes (charge from structure file)
Pseudo Atom[  33] Name O7       Oxidation:          Element: O    pdb-name: O    Scat. Types:   9   8 Mass=15.999404927 B-factor:0.000   
                 Charge=-0.628519000   (av)  Polarization=0.802000000  [A^3] (considered a charged atom and no polarization)  Interactions: yes
                 Anisotropic factor:    0.000 [-] (Absolute), Radius:    0.640 [A], Framework-atom: yes (charge from structure file)
Pseudo Atom[  34] Name O8       Oxidation:          Element: O    pdb-name: O    Scat. Types:   9   8 Mass=15.999404927 B-factor:0.000   
                 Charge=-0.616811000   (av)  Polarization=0.802000000  [A^3] (considered a charged atom and no polarization)  Interactions: yes
                 Anisotropic factor:    0.000 [-] (Absolute), Radius:    0.640 [A], Framework-atom: yes (charge from structure file)
Pseudo Atom[  35] Name O9       Oxidation:          Element: O    pdb-name: O    Scat. Types:   9   8 Mass=15.999404927 B-factor:0.000   
                 Charge=-0.616813000   (av)  Polarization=0.802000000  [A^3] (considered a charged atom and no polarization)  Interactions: yes
                 Anisotropic factor:    0.000 [-] (Absolute), Radius:    0.640 [A], Framework-atom: yes (charge from structure file)
Pseudo Atom[  36] Name O10      Oxidation:          Element: O    pdb-name: O    Scat. Types:   9   8 Mass=15.999404927 B-factor:0.000   
                 Charge=-0.616794000   (av)  Polarization=0.802000000  [A^3] (considered a charged atom and no polarization)  Interactions: yes
                 Anisotropic factor:    0.000 [-] (Absolute), Radius:    0.640 [A], Framework-atom: yes (charge from structure file)
Pseudo Atom[  37] Name O11      Oxidation:          Element: O    pdb-name: O    Scat. Types:   9   8 Mass=15.999404927 B-factor:0.000   
                 Charge=-0.628519000   (av)  Polarization=0.802000000  [A^3] (considered a charged atom and no polarization)  Interactions: yes
                 Anisotropic factor:    0.000 [-] (Absolute), Radius:    0.640 [A], Framework-atom: yes (charge from structure file)
Pseudo Atom[  38] Name O12      Oxidation:          Element: O    pdb-name: O    Scat. Types:   9   8 Mass=15.999404927 B-factor:0.000   
                 Charge=-0.616804000   (av)  Polarization=0.802000000  [A^3] (considered a charged atom and no polarization)  Interactions: yes
                 Anisotropic factor:    0.000 [-] (Absolute), Radius:    0.640 [A], Framework-atom: yes (charge from structure file)
Pseudo Atom[  39] Name O13      Oxidation:          Element: O    pdb-name: O    Scat. Types:   9   8 Mass=15.999404927 B-factor:0.000   
                 Charge=-0.628509000   (av)  Polarization=0.802000000  [A^3] (considered a charged atom and no polarization)  Interactions: yes
                 Anisotropic factor:    0.000 [-] (Absolute), Radius:    0.640 [A], Framework-atom: yes (charge from structure file)
Pseudo Atom[  40] Name O14      Oxidation:          Element: O    pdb-name: O    Scat. Types:   9   8 Mass=15.999404927 B-factor:0.000   
                 Charge=-0.628511000   (av)  Polarization=0.802000000  [A^3] (considered a charged atom and no polarization)  Interactions: yes
                 Anisotropic factor:    0.000 [-] (Absolute), Radius:    0.640 [A], Framework-atom: yes (charge from structure file)
Pseudo Atom[  41] Name O15      Oxidation:          Element: O    pdb-name: O    Scat. Types:   9   8 Mass=15.999404927 B-factor:0.000   
                 Charge=-0.628514000   (av)  Polarization=0.802000000  [A^3] (considered a charged atom and no polarization)  Interactions: yes
                 Anisotropic factor:    0.000 [-] (Absolute), Radius:    0.640 [A], Framework-atom: yes (charge from structure file)
Pseudo Atom[  42] Name O16      Oxidation:          Element: O    pdb-name: O    Scat. Types:   9   8 Mass=15.999404927 B-factor:0.000   
                 Charge=-0.628511000   (av)  Polarization=0.802000000  [A^3] (considered a charged atom and no polarization)  Interactions: yes
                 Anisotropic factor:    0.000 [-] (Absolute), Radius:    0.640 [A], Framework-atom: yes (charge from structure file)
Pseudo Atom[  43] Name Tb1      Oxidation:          Element: Tb   pdb-name: Tb   Scat. Types:  66  65 Mass=158.925346800 B-factor:0.000   
                 Charge=2.008367000    (av)  Polarization=25.500000000 [A^3] (considered a charged atom and no polarization)  Interactions: yes
                 Anisotropic factor:    0.000 [-] (Absolute), Radius:    1.810 [A], Framework-atom: yes (charge from structure file)
Pseudo Atom[  44] Name Tb2      Oxidation:          Element: Tb   pdb-name: Tb   Scat. Types:  66  65 Mass=158.925346800 B-factor:0.000   
                 Charge=2.008368000    (av)  Polarization=25.500000000 [A^3] (considered a charged atom and no polarization)  Interactions: yes
                 Anisotropic factor:    0.000 [-] (Absolute), Radius:    1.810 [A], Framework-atom: yes (charge from structure file)


Forcefield: doi10_1038
===========================================================================
Minimal distance: 1
CutOff VDW : 12.000000 (144.000000)
CutOff VDW switching on: 10.800000 (116.640000)
CutOff charge-charge : 12.000000 (144.000000)
CutOff charge-charge switching on: 7.800000 (60.840000)
CutOff charge-bonddipole : 12.000000 (144.000000)
CutOff charge-bondipole switching on: 8.400000 (70.560000)
CutOff bonddipole-bonddipole : 12.000000 (144.000000)
CutOff bonddipole-bondipole switching on: 9.000000 (81.000000)
Polarization is neglected
All potentials are shifted to zero at the Cutoff

General mixing rule: Lorentz-Berthelot mixing rules are used FIRST for cross terms
0 cross terms are overwritten using the individual mixing rules from the file 'force_field_mixing_rules.def'
and then 0 terms are overwritten using the specific interactions from the file 'force_field.def'

The force field and all the interactions:
     He -      He [LENNARD_JONES] p_0/k_B:  28.18320 [K], p_1: 2.10430 [A], shift/k_B:  -0.00327790 [K], tailcorrection: no
     He -   C_co2 [LENNARD_JONES] p_0/k_B:  29.04493 [K], p_1: 2.42465 [A], shift/k_B:  -0.00790510 [K], tailcorrection: no
     He -   O_co2 [LENNARD_JONES] p_0/k_B:  49.13739 [K], p_1: 2.56065 [A], shift/k_B:  -0.01855431 [K], tailcorrection: no
     He -    O_o2 [LENNARD_JONES] p_0/k_B:  29.17239 [K], p_1: 2.61120 [A], shift/k_B:  -0.01238623 [K], tailcorrection: no
     He -   O_com [LENNARD_JONES] p_0/k_B:  29.17239 [K], p_1: 2.61120 [A], shift/k_B:  -0.01238623 [K], tailcorrection: no
     He -    N_n2 [LENNARD_JONES] p_0/k_B:  31.28388 [K], p_1: 2.68250 [A], shift/k_B:  -0.01561268 [K], tailcorrection: no
     He -   N_com [LENNARD_JONES] p_0/k_B:  31.28388 [K], p_1: 2.68250 [A], shift/k_B:  -0.01561268 [K], tailcorrection: no
     He -      Ar [LENNARD_JONES] p_0/k_B:  51.22502 [K], p_1: 2.77515 [A], shift/k_B:  -0.03134058 [K], tailcorrection: no
     He -     CH4 [LENNARD_JONES] p_0/k_B:  38.59144 [K], p_1: 2.76760 [A], shift/k_B:  -0.02322833 [K], tailcorrection: no
     He -     CH3 [LENNARD_JONES] p_0/k_B:  38.59144 [K], p_1: 2.76760 [A], shift/k_B:  -0.02322833 [K], tailcorrection: no
     He -     CH2 [LENNARD_JONES] p_0/k_B:  38.59144 [K], p_1: 2.76760 [A], shift/k_B:  -0.02322833 [K], tailcorrection: no
     He -      CH [LENNARD_JONES] p_0/k_B:  38.59144 [K], p_1: 2.76760 [A], shift/k_B:  -0.02322833 [K], tailcorrection: no
     He -       C [LENNARD_JONES] p_0/k_B:  38.59144 [K], p_1: 2.76760 [A], shift/k_B:  -0.02322833 [K], tailcorrection: no
     He -      Hw [LENNARD_JONES] p_0/k_B:  24.98171 [K], p_1: 2.33770 [A], shift/k_B:  -0.00546140 [K], tailcorrection: no
     He -      Ow [LENNARD_JONES] p_0/k_B:  29.17239 [K], p_1: 2.61120 [A], shift/k_B:  -0.01238623 [K], tailcorrection: no
     He -      C1 [LENNARD_JONES] p_0/k_B:  38.59144 [K], p_1: 2.76760 [A], shift/k_B:  -0.02322833 [K], tailcorrection: no
     He -      C2 [LENNARD_JONES] p_0/k_B:  38.59144 [K], p_1: 2.76760 [A], shift/k_B:  -0.02322833 [K], tailcorrection: no
     He -      C3 [LENNARD_JONES] p_0/k_B:  38.59144 [K], p_1: 2.76760 [A], shift/k_B:  -0.02322833 [K], tailcorrection: no
     He -      C4 [LENNARD_JONES] p_0/k_B:  38.59144 [K], p_1: 2.76760 [A], shift/k_B:  -0.02322833 [K], tailcorrection: no
     He -      C5 [LENNARD_JONES] p_0/k_B:  38.59144 [K], p_1: 2.76760 [A], shift/k_B:  -0.02322833 [K], tailcorrection: no
     He -      C6 [LENNARD_JONES] p_0/k_B:  38.59144 [K], p_1: 2.76760 [A], shift/k_B:  -0.02322833 [K], tailcorrection: no
     He -      C7 [LENNARD_JONES] p_0/k_B:  38.59144 [K], p_1: 2.76760 [A], shift/k_B:  -0.02322833 [K], tailcorrection: no
     He -      C8 [LENNARD_JONES] p_0/k_B:  38.59144 [K], p_1: 2.76760 [A], shift/k_B:  -0.02322833 [K], tailcorrection: no
     He -      K1 [LENNARD_JONES] p_0/k_B:  22.28078 [K], p_1: 2.75020 [A], shift/k_B:  -0.01291295 [K], tailcorrection: no
     He -      K2 [LENNARD_JONES] p_0/k_B:  22.28078 [K], p_1: 2.75020 [A], shift/k_B:  -0.01291295 [K], tailcorrection: no
     He -      O1 [LENNARD_JONES] p_0/k_B:  29.17239 [K], p_1: 2.61120 [A], shift/k_B:  -0.01238623 [K], tailcorrection: no
     He -      O2 [LENNARD_JONES] p_0/k_B:  29.17239 [K], p_1: 2.61120 [A], shift/k_B:  -0.01238623 [K], tailcorrection: no
     He -      O3 [LENNARD_JONES] p_0/k_B:  29.17239 [K], p_1: 2.61120 [A], shift/k_B:  -0.01238623 [K], tailcorrection: no
     He -      O4 [LENNARD_JONES] p_0/k_B:  29.17239 [K], p_1: 2.61120 [A], shift/k_B:  -0.01238623 [K], tailcorrection: no
     He -      O5 [LENNARD_JONES] p_0/k_B:  29.17239 [K], p_1: 2.61120 [A], shift/k_B:  -0.01238623 [K], tailcorrection: no
     He -      O6 [LENNARD_JONES] p_0/k_B:  29.17239 [K], p_1: 2.61120 [A], shift/k_B:  -0.01238623 [K], tailcorrection: no
     He -      O7 [LENNARD_JONES] p_0/k_B:  29.17239 [K], p_1: 2.61120 [A], shift/k_B:  -0.01238623 [K], tailcorrection: no
     He -      O8 [LENNARD_JONES] p_0/k_B:  29.17239 [K], p_1: 2.61120 [A], shift/k_B:  -0.01238623 [K], tailcorrection: no
     He -      O9 [LENNARD_JONES] p_0/k_B:  29.17239 [K], p_1: 2.61120 [A], shift/k_B:  -0.01238623 [K], tailcorrection: no
     He -     O10 [LENNARD_JONES] p_0/k_B:  29.17239 [K], p_1: 2.61120 [A], shift/k_B:  -0.01238623 [K], tailcorrection: no
     He -     O11 [LENNARD_JONES] p_0/k_B:  29.17239 [K], p_1: 2.61120 [A], shift/k_B:  -0.01238623 [K], tailcorrection: no
     He -     O12 [LENNARD_JONES] p_0/k_B:  29.17239 [K], p_1: 2.61120 [A], shift/k_B:  -0.01238623 [K], tailcorrection: no
     He -     O13 [LENNARD_JONES] p_0/k_B:  29.17239 [K], p_1: 2.61120 [A], shift/k_B:  -0.01238623 [K], tailcorrection: no
     He -     O14 [LENNARD_JONES] p_0/k_B:  29.17239 [K], p_1: 2.61120 [A], shift/k_B:  -0.01238623 [K], tailcorrection: no
     He -     O15 [LENNARD_JONES] p_0/k_B:  29.17239 [K], p_1: 2.61120 [A], shift/k_B:  -0.01238623 [K], tailcorrection: no
     He -     O16 [LENNARD_JONES] p_0/k_B:  29.17239 [K], p_1: 2.61120 [A], shift/k_B:  -0.01238623 [K], tailcorrection: no
     He -     Tb1 [LENNARD_JONES] p_0/k_B:   9.96427 [K], p_1: 2.58940 [A], shift/k_B:  -0.00402317 [K], tailcorrection: no
     He -     Tb2 [LENNARD_JONES] p_0/k_B:   9.96427 [K], p_1: 2.58940 [A], shift/k_B:  -0.00402317 [K], tailcorrection: no
  C_co2 -   C_co2 [LENNARD_JONES] p_0/k_B:  29.93300 [K], p_1: 2.74500 [A], shift/k_B:  -0.01715199 [K], tailcorrection: no
  C_co2 -   O_co2 [LENNARD_JONES] p_0/k_B:  50.63981 [K], p_1: 2.88100 [A], shift/k_B:  -0.03878296 [K], tailcorrection: no
  C_co2 -    O_o2 [LENNARD_JONES] p_0/k_B:  30.06436 [K], p_1: 2.93155 [A], shift/k_B:  -0.02555736 [K], tailcorrection: no
  C_co2 -   O_com [LENNARD_JONES] p_0/k_B:  30.06436 [K], p_1: 2.93155 [A], shift/k_B:  -0.02555736 [K], tailcorrection: no
  C_co2 -    N_n2 [LENNARD_JONES] p_0/k_B:  32.24042 [K], p_1: 3.00285 [A], shift/k_B:  -0.03165690 [K], tailcorrection: no
  C_co2 -   N_com [LENNARD_JONES] p_0/k_B:  32.24042 [K], p_1: 3.00285 [A], shift/k_B:  -0.03165690 [K], tailcorrection: no
  C_co2 -      Ar [LENNARD_JONES] p_0/k_B:  52.79127 [K], p_1: 3.09550 [A], shift/k_B:  -0.06220016 [K], tailcorrection: no
  C_co2 -     CH4 [LENNARD_JONES] p_0/k_B:  39.77140 [K], p_1: 3.08795 [A], shift/k_B:  -0.04617840 [K], tailcorrection: no
  C_co2 -     CH3 [LENNARD_JONES] p_0/k_B:  39.77140 [K], p_1: 3.08795 [A], shift/k_B:  -0.04617840 [K], tailcorrection: no
  C_co2 -     CH2 [LENNARD_JONES] p_0/k_B:  39.77140 [K], p_1: 3.08795 [A], shift/k_B:  -0.04617840 [K], tailcorrection: no
  C_co2 -      CH [LENNARD_JONES] p_0/k_B:  39.77140 [K], p_1: 3.08795 [A], shift/k_B:  -0.04617840 [K], tailcorrection: no
  C_co2 -       C [LENNARD_JONES] p_0/k_B:  39.77140 [K], p_1: 3.08795 [A], shift/k_B:  -0.04617840 [K], tailcorrection: no
  C_co2 -      Hw [LENNARD_JONES] p_0/k_B:  25.74555 [K], p_1: 2.65805 [A], shift/k_B:  -0.01216192 [K], tailcorrection: no
  C_co2 -      Ow [LENNARD_JONES] p_0/k_B:  30.06436 [K], p_1: 2.93155 [A], shift/k_B:  -0.02555736 [K], tailcorrection: no
  C_co2 -      C1 [LENNARD_JONES] p_0/k_B:  39.77140 [K], p_1: 3.08795 [A], shift/k_B:  -0.04617840 [K], tailcorrection: no
  C_co2 -      C2 [LENNARD_JONES] p_0/k_B:  39.77140 [K], p_1: 3.08795 [A], shift/k_B:  -0.04617840 [K], tailcorrection: no
  C_co2 -      C3 [LENNARD_JONES] p_0/k_B:  39.77140 [K], p_1: 3.08795 [A], shift/k_B:  -0.04617840 [K], tailcorrection: no
  C_co2 -      C4 [LENNARD_JONES] p_0/k_B:  39.77140 [K], p_1: 3.08795 [A], shift/k_B:  -0.04617840 [K], tailcorrection: no
  C_co2 -      C5 [LENNARD_JONES] p_0/k_B:  39.77140 [K], p_1: 3.08795 [A], shift/k_B:  -0.04617840 [K], tailcorrection: no
  C_co2 -      C6 [LENNARD_JONES] p_0/k_B:  39.77140 [K], p_1: 3.08795 [A], shift/k_B:  -0.04617840 [K], tailcorrection: no
  C_co2 -      C7 [LENNARD_JONES] p_0/k_B:  39.77140 [K], p_1: 3.08795 [A], shift/k_B:  -0.04617840 [K], tailcorrection: no
  C_co2 -      C8 [LENNARD_JONES] p_0/k_B:  39.77140 [K], p_1: 3.08795 [A], shift/k_B:  -0.04617840 [K], tailcorrection: no
  C_co2 -      K1 [LENNARD_JONES] p_0/k_B:  22.96203 [K], p_1: 3.07055 [A], shift/k_B:  -0.02577258 [K], tailcorrection: no
  C_co2 -      K2 [LENNARD_JONES] p_0/k_B:  22.96203 [K], p_1: 3.07055 [A], shift/k_B:  -0.02577258 [K], tailcorrection: no
  C_co2 -      O1 [LENNARD_JONES] p_0/k_B:  30.06436 [K], p_1: 2.93155 [A], shift/k_B:  -0.02555736 [K], tailcorrection: no
  C_co2 -      O2 [LENNARD_JONES] p_0/k_B:  30.06436 [K], p_1: 2.93155 [A], shift/k_B:  -0.02555736 [K], tailcorrection: no
  C_co2 -      O3 [LENNARD_JONES] p_0/k_B:  30.06436 [K], p_1: 2.93155 [A], shift/k_B:  -0.02555736 [K], tailcorrection: no
  C_co2 -      O4 [LENNARD_JONES] p_0/k_B:  30.06436 [K], p_1: 2.93155 [A], shift/k_B:  -0.02555736 [K], tailcorrection: no
  C_co2 -      O5 [LENNARD_JONES] p_0/k_B:  30.06436 [K], p_1: 2.93155 [A], shift/k_B:  -0.02555736 [K], tailcorrection: no
  C_co2 -      O6 [LENNARD_JONES] p_0/k_B:  30.06436 [K], p_1: 2.93155 [A], shift/k_B:  -0.02555736 [K], tailcorrection: no
  C_co2 -      O7 [LENNARD_JONES] p_0/k_B:  30.06436 [K], p_1: 2.93155 [A], shift/k_B:  -0.02555736 [K], tailcorrection: no
  C_co2 -      O8 [LENNARD_JONES] p_0/k_B:  30.06436 [K], p_1: 2.93155 [A], shift/k_B:  -0.02555736 [K], tailcorrection: no
  C_co2 -      O9 [LENNARD_JONES] p_0/k_B:  30.06436 [K], p_1: 2.93155 [A], shift/k_B:  -0.02555736 [K], tailcorrection: no
  C_co2 -     O10 [LENNARD_JONES] p_0/k_B:  30.06436 [K], p_1: 2.93155 [A], shift/k_B:  -0.02555736 [K], tailcorrection: no
  C_co2 -     O11 [LENNARD_JONES] p_0/k_B:  30.06436 [K], p_1: 2.93155 [A], shift/k_B:  -0.02555736 [K], tailcorrection: no
  C_co2 -     O12 [LENNARD_JONES] p_0/k_B:  30.06436 [K], p_1: 2.93155 [A], shift/k_B:  -0.02555736 [K], tailcorrection: no
  C_co2 -     O13 [LENNARD_JONES] p_0/k_B:  30.06436 [K], p_1: 2.93155 [A], shift/k_B:  -0.02555736 [K], tailcorrection: no
  C_co2 -     O14 [LENNARD_JONES] p_0/k_B:  30.06436 [K], p_1: 2.93155 [A], shift/k_B:  -0.02555736 [K], tailcorrection: no
  C_co2 -     O15 [LENNARD_JONES] p_0/k_B:  30.06436 [K], p_1: 2.93155 [A], shift/k_B:  -0.02555736 [K], tailcorrection: no
  C_co2 -     O16 [LENNARD_JONES] p_0/k_B:  30.06436 [K], p_1: 2.93155 [A], shift/k_B:  -0.02555736 [K], tailcorrection: no
  C_co2 -     Tb1 [LENNARD_JONES] p_0/k_B:  10.26893 [K], p_1: 2.90975 [A], shift/k_B:  -0.00834725 [K], tailcorrection: no
  C_co2 -     Tb2 [LENNARD_JONES] p_0/k_B:  10.26893 [K], p_1: 2.90975 [A], shift/k_B:  -0.00834725 [K], tailcorrection: no
  O_co2 -   O_co2 [LENNARD_JONES] p_0/k_B:  85.67100 [K], p_1: 3.01700 [A], shift/k_B:  -0.08652638 [K], tailcorrection: no
  O_co2 -    O_o2 [LENNARD_JONES] p_0/k_B:  50.86204 [K], p_1: 3.06755 [A], shift/k_B:  -0.05675381 [K], tailcorrection: no
  O_co2 -   O_com [LENNARD_JONES] p_0/k_B:  50.86204 [K], p_1: 3.06755 [A], shift/k_B:  -0.05675381 [K], tailcorrection: no
  O_co2 -    N_n2 [LENNARD_JONES] p_0/k_B:  54.54343 [K], p_1: 3.13885 [A], shift/k_B:  -0.06985527 [K], tailcorrection: no
  O_co2 -   N_com [LENNARD_JONES] p_0/k_B:  54.54343 [K], p_1: 3.13885 [A], shift/k_B:  -0.06985527 [K], tailcorrection: no
  O_co2 -      Ar [LENNARD_JONES] p_0/k_B:  89.31078 [K], p_1: 3.23150 [A], shift/k_B:  -0.13618702 [K], tailcorrection: no
  O_co2 -     CH4 [LENNARD_JONES] p_0/k_B:  67.28414 [K], p_1: 3.22395 [A], shift/k_B:  -0.10116998 [K], tailcorrection: no
  O_co2 -     CH3 [LENNARD_JONES] p_0/k_B:  67.28414 [K], p_1: 3.22395 [A], shift/k_B:  -0.10116998 [K], tailcorrection: no
  O_co2 -     CH2 [LENNARD_JONES] p_0/k_B:  67.28414 [K], p_1: 3.22395 [A], shift/k_B:  -0.10116998 [K], tailcorrection: no
  O_co2 -      CH [LENNARD_JONES] p_0/k_B:  67.28414 [K], p_1: 3.22395 [A], shift/k_B:  -0.10116998 [K], tailcorrection: no
  O_co2 -       C [LENNARD_JONES] p_0/k_B:  67.28414 [K], p_1: 3.22395 [A], shift/k_B:  -0.10116998 [K], tailcorrection: no
  O_co2 -      Hw [LENNARD_JONES] p_0/k_B:  43.55560 [K], p_1: 2.79405 [A], shift/k_B:  -0.02775571 [K], tailcorrection: no
  O_co2 -      Ow [LENNARD_JONES] p_0/k_B:  50.86204 [K], p_1: 3.06755 [A], shift/k_B:  -0.05675381 [K], tailcorrection: no
  O_co2 -      C1 [LENNARD_JONES] p_0/k_B:  67.28414 [K], p_1: 3.22395 [A], shift/k_B:  -0.10116998 [K], tailcorrection: no
  O_co2 -      C2 [LENNARD_JONES] p_0/k_B:  67.28414 [K], p_1: 3.22395 [A], shift/k_B:  -0.10116998 [K], tailcorrection: no
  O_co2 -      C3 [LENNARD_JONES] p_0/k_B:  67.28414 [K], p_1: 3.22395 [A], shift/k_B:  -0.10116998 [K], tailcorrection: no
  O_co2 -      C4 [LENNARD_JONES] p_0/k_B:  67.28414 [K], p_1: 3.22395 [A], shift/k_B:  -0.10116998 [K], tailcorrection: no
  O_co2 -      C5 [LENNARD_JONES] p_0/k_B:  67.28414 [K], p_1: 3.22395 [A], shift/k_B:  -0.10116998 [K], tailcorrection: no
  O_co2 -      C6 [LENNARD_JONES] p_0/k_B:  67.28414 [K], p_1: 3.22395 [A], shift/k_B:  -0.10116998 [K], tailcorrection: no
  O_co2 -      C7 [LENNARD_JONES] p_0/k_B:  67.28414 [K], p_1: 3.22395 [A], shift/k_B:  -0.10116998 [K], tailcorrection: no
  O_co2 -      C8 [LENNARD_JONES] p_0/k_B:  67.28414 [K], p_1: 3.22395 [A], shift/k_B:  -0.10116998 [K], tailcorrection: no
  O_co2 -      K1 [LENNARD_JONES] p_0/k_B:  38.84652 [K], p_1: 3.20655 [A], shift/k_B:  -0.05654505 [K], tailcorrection: no
  O_co2 -      K2 [LENNARD_JONES] p_0/k_B:  38.84652 [K], p_1: 3.20655 [A], shift/k_B:  -0.05654505 [K], tailcorrection: no
  O_co2 -      O1 [LENNARD_JONES] p_0/k_B:  50.86204 [K], p_1: 3.06755 [A], shift/k_B:  -0.05675381 [K], tailcorrection: no
  O_co2 -      O2 [LENNARD_JONES] p_0/k_B:  50.86204 [K], p_1: 3.06755 [A], shift/k_B:  -0.05675381 [K], tailcorrection: no
  O_co2 -      O3 [LENNARD_JONES] p_0/k_B:  50.86204 [K], p_1: 3.06755 [A], shift/k_B:  -0.05675381 [K], tailcorrection: no
  O_co2 -      O4 [LENNARD_JONES] p_0/k_B:  50.86204 [K], p_1: 3.06755 [A], shift/k_B:  -0.05675381 [K], tailcorrection: no
  O_co2 -      O5 [LENNARD_JONES] p_0/k_B:  50.86204 [K], p_1: 3.06755 [A], shift/k_B:  -0.05675381 [K], tailcorrection: no
  O_co2 -      O6 [LENNARD_JONES] p_0/k_B:  50.86204 [K], p_1: 3.06755 [A], shift/k_B:  -0.05675381 [K], tailcorrection: no
  O_co2 -      O7 [LENNARD_JONES] p_0/k_B:  50.86204 [K], p_1: 3.06755 [A], shift/k_B:  -0.05675381 [K], tailcorrection: no
  O_co2 -      O8 [LENNARD_JONES] p_0/k_B:  50.86204 [K], p_1: 3.06755 [A], shift/k_B:  -0.05675381 [K], tailcorrection: no
  O_co2 -      O9 [LENNARD_JONES] p_0/k_B:  50.86204 [K], p_1: 3.06755 [A], shift/k_B:  -0.05675381 [K], tailcorrection: no
  O_co2 -     O10 [LENNARD_JONES] p_0/k_B:  50.86204 [K], p_1: 3.06755 [A], shift/k_B:  -0.05675381 [K], tailcorrection: no
  O_co2 -     O11 [LENNARD_JONES] p_0/k_B:  50.86204 [K], p_1: 3.06755 [A], shift/k_B:  -0.05675381 [K], tailcorrection: no
  O_co2 -     O12 [LENNARD_JONES] p_0/k_B:  50.86204 [K], p_1: 3.06755 [A], shift/k_B:  -0.05675381 [K], tailcorrection: no
  O_co2 -     O13 [LENNARD_JONES] p_0/k_B:  50.86204 [K], p_1: 3.06755 [A], shift/k_B:  -0.05675381 [K], tailcorrection: no
  O_co2 -     O14 [LENNARD_JONES] p_0/k_B:  50.86204 [K], p_1: 3.06755 [A], shift/k_B:  -0.05675381 [K], tailcorrection: no
  O_co2 -     O15 [LENNARD_JONES] p_0/k_B:  50.86204 [K], p_1: 3.06755 [A], shift/k_B:  -0.05675381 [K], tailcorrection: no
  O_co2 -     O16 [LENNARD_JONES] p_0/k_B:  50.86204 [K], p_1: 3.06755 [A], shift/k_B:  -0.05675381 [K], tailcorrection: no
  O_co2 -     Tb1 [LENNARD_JONES] p_0/k_B:  17.37269 [K], p_1: 3.04575 [A], shift/k_B:  -0.01857330 [K], tailcorrection: no
  O_co2 -     Tb2 [LENNARD_JONES] p_0/k_B:  17.37269 [K], p_1: 3.04575 [A], shift/k_B:  -0.01857330 [K], tailcorrection: no
   O_o2 -    O_o2 [LENNARD_JONES] p_0/k_B:  30.19630 [K], p_1: 3.11810 [A], shift/k_B:  -0.03716488 [K], tailcorrection: no
   O_o2 -   O_com [LENNARD_JONES] p_0/k_B:  30.19630 [K], p_1: 3.11810 [A], shift/k_B:  -0.03716488 [K], tailcorrection: no
   O_o2 -    N_n2 [LENNARD_JONES] p_0/k_B:  32.38190 [K], p_1: 3.18940 [A], shift/k_B:  -0.04564316 [K], tailcorrection: no
   O_o2 -   N_com [LENNARD_JONES] p_0/k_B:  32.38190 [K], p_1: 3.18940 [A], shift/k_B:  -0.04564316 [K], tailcorrection: no
   O_o2 -      Ar [LENNARD_JONES] p_0/k_B:  53.02294 [K], p_1: 3.28205 [A], shift/k_B:  -0.08874128 [K], tailcorrection: no
   O_o2 -     CH4 [LENNARD_JONES] p_0/k_B:  39.94594 [K], p_1: 3.27450 [A], shift/k_B:  -0.06593801 [K], tailcorrection: no
   O_o2 -     CH3 [LENNARD_JONES] p_0/k_B:  39.94594 [K], p_1: 3.27450 [A], shift/k_B:  -0.06593801 [K], tailcorrection: no
   O_o2 -     CH2 [LENNARD_JONES] p_0/k_B:  39.94594 [K], p_1: 3.27450 [A], shift/k_B:  -0.06593801 [K], tailcorrection: no
   O_o2 -      CH [LENNARD_JONES] p_0/k_B:  39.94594 [K], p_1: 3.27450 [A], shift/k_B:  -0.06593801 [K], tailcorrection: no
   O_o2 -       C [LENNARD_JONES] p_0/k_B:  39.94594 [K], p_1: 3.27450 [A], shift/k_B:  -0.06593801 [K], tailcorrection: no
   O_o2 -      Hw [LENNARD_JONES] p_0/k_B:  25.85854 [K], p_1: 2.84460 [A], shift/k_B:  -0.01834960 [K], tailcorrection: no
   O_o2 -      Ow [LENNARD_JONES] p_0/k_B:  30.19630 [K], p_1: 3.11810 [A], shift/k_B:  -0.03716488 [K], tailcorrection: no
   O_o2 -      C1 [LENNARD_JONES] p_0/k_B:  39.94594 [K], p_1: 3.27450 [A], shift/k_B:  -0.06593801 [K], tailcorrection: no
   O_o2 -      C2 [LENNARD_JONES] p_0/k_B:  39.94594 [K], p_1: 3.27450 [A], shift/k_B:  -0.06593801 [K], tailcorrection: no
   O_o2 -      C3 [LENNARD_JONES] p_0/k_B:  39.94594 [K], p_1: 3.27450 [A], shift/k_B:  -0.06593801 [K], tailcorrection: no
   O_o2 -      C4 [LENNARD_JONES] p_0/k_B:  39.94594 [K], p_1: 3.27450 [A], shift/k_B:  -0.06593801 [K], tailcorrection: no
   O_o2 -      C5 [LENNARD_JONES] p_0/k_B:  39.94594 [K], p_1: 3.27450 [A], shift/k_B:  -0.06593801 [K], tailcorrection: no
   O_o2 -      C6 [LENNARD_JONES] p_0/k_B:  39.94594 [K], p_1: 3.27450 [A], shift/k_B:  -0.06593801 [K], tailcorrection: no
   O_o2 -      C7 [LENNARD_JONES] p_0/k_B:  39.94594 [K], p_1: 3.27450 [A], shift/k_B:  -0.06593801 [K], tailcorrection: no
   O_o2 -      C8 [LENNARD_JONES] p_0/k_B:  39.94594 [K], p_1: 3.27450 [A], shift/k_B:  -0.06593801 [K], tailcorrection: no
   O_o2 -      K1 [LENNARD_JONES] p_0/k_B:  23.06280 [K], p_1: 3.25710 [A], shift/k_B:  -0.03687206 [K], tailcorrection: no
   O_o2 -      K2 [LENNARD_JONES] p_0/k_B:  23.06280 [K], p_1: 3.25710 [A], shift/k_B:  -0.03687206 [K], tailcorrection: no
   O_o2 -      O1 [LENNARD_JONES] p_0/k_B:  30.19630 [K], p_1: 3.11810 [A], shift/k_B:  -0.03716488 [K], tailcorrection: no
   O_o2 -      O2 [LENNARD_JONES] p_0/k_B:  30.19630 [K], p_1: 3.11810 [A], shift/k_B:  -0.03716488 [K], tailcorrection: no
   O_o2 -      O3 [LENNARD_JONES] p_0/k_B:  30.19630 [K], p_1: 3.11810 [A], shift/k_B:  -0.03716488 [K], tailcorrection: no
   O_o2 -      O4 [LENNARD_JONES] p_0/k_B:  30.19630 [K], p_1: 3.11810 [A], shift/k_B:  -0.03716488 [K], tailcorrection: no
   O_o2 -      O5 [LENNARD_JONES] p_0/k_B:  30.19630 [K], p_1: 3.11810 [A], shift/k_B:  -0.03716488 [K], tailcorrection: no
   O_o2 -      O6 [LENNARD_JONES] p_0/k_B:  30.19630 [K], p_1: 3.11810 [A], shift/k_B:  -0.03716488 [K], tailcorrection: no
   O_o2 -      O7 [LENNARD_JONES] p_0/k_B:  30.19630 [K], p_1: 3.11810 [A], shift/k_B:  -0.03716488 [K], tailcorrection: no
   O_o2 -      O8 [LENNARD_JONES] p_0/k_B:  30.19630 [K], p_1: 3.11810 [A], shift/k_B:  -0.03716488 [K], tailcorrection: no
   O_o2 -      O9 [LENNARD_JONES] p_0/k_B:  30.19630 [K], p_1: 3.11810 [A], shift/k_B:  -0.03716488 [K], tailcorrection: no
   O_o2 -     O10 [LENNARD_JONES] p_0/k_B:  30.19630 [K], p_1: 3.11810 [A], shift/k_B:  -0.03716488 [K], tailcorrection: no
   O_o2 -     O11 [LENNARD_JONES] p_0/k_B:  30.19630 [K], p_1: 3.11810 [A], shift/k_B:  -0.03716488 [K], tailcorrection: no
   O_o2 -     O12 [LENNARD_JONES] p_0/k_B:  30.19630 [K], p_1: 3.11810 [A], shift/k_B:  -0.03716488 [K], tailcorrection: no
   O_o2 -     O13 [LENNARD_JONES] p_0/k_B:  30.19630 [K], p_1: 3.11810 [A], shift/k_B:  -0.03716488 [K], tailcorrection: no
   O_o2 -     O14 [LENNARD_JONES] p_0/k_B:  30.19630 [K], p_1: 3.11810 [A], shift/k_B:  -0.03716488 [K], tailcorrection: no
   O_o2 -     O15 [LENNARD_JONES] p_0/k_B:  30.19630 [K], p_1: 3.11810 [A], shift/k_B:  -0.03716488 [K], tailcorrection: no
   O_o2 -     O16 [LENNARD_JONES] p_0/k_B:  30.19630 [K], p_1: 3.11810 [A], shift/k_B:  -0.03716488 [K], tailcorrection: no
   O_o2 -     Tb1 [LENNARD_JONES] p_0/k_B:  10.31400 [K], p_1: 3.09630 [A], shift/k_B:  -0.01217109 [K], tailcorrection: no
   O_o2 -     Tb2 [LENNARD_JONES] p_0/k_B:  10.31400 [K], p_1: 3.09630 [A], shift/k_B:  -0.01217109 [K], tailcorrection: no
  O_com -   O_com [LENNARD_JONES] p_0/k_B:  30.19630 [K], p_1: 3.11810 [A], shift/k_B:  -0.03716488 [K], tailcorrection: no
  O_com -    N_n2 [LENNARD_JONES] p_0/k_B:  32.38190 [K], p_1: 3.18940 [A], shift/k_B:  -0.04564316 [K], tailcorrection: no
  O_com -   N_com [LENNARD_JONES] p_0/k_B:  32.38190 [K], p_1: 3.18940 [A], shift/k_B:  -0.04564316 [K], tailcorrection: no
  O_com -      Ar [LENNARD_JONES] p_0/k_B:  53.02294 [K], p_1: 3.28205 [A], shift/k_B:  -0.08874128 [K], tailcorrection: no
  O_com -     CH4 [LENNARD_JONES] p_0/k_B:  39.94594 [K], p_1: 3.27450 [A], shift/k_B:  -0.06593801 [K], tailcorrection: no
  O_com -     CH3 [LENNARD_JONES] p_0/k_B:  39.94594 [K], p_1: 3.27450 [A], shift/k_B:  -0.06593801 [K], tailcorrection: no
  O_com -     CH2 [LENNARD_JONES] p_0/k_B:  39.94594 [K], p_1: 3.27450 [A], shift/k_B:  -0.06593801 [K], tailcorrection: no
  O_com -      CH [LENNARD_JONES] p_0/k_B:  39.94594 [K], p_1: 3.27450 [A], shift/k_B:  -0.06593801 [K], tailcorrection: no
  O_com -       C [LENNARD_JONES] p_0/k_B:  39.94594 [K], p_1: 3.27450 [A], shift/k_B:  -0.06593801 [K], tailcorrection: no
  O_com -      Hw [LENNARD_JONES] p_0/k_B:  25.85854 [K], p_1: 2.84460 [A], shift/k_B:  -0.01834960 [K], tailcorrection: no
  O_com -      Ow [LENNARD_JONES] p_0/k_B:  30.19630 [K], p_1: 3.11810 [A], shift/k_B:  -0.03716488 [K], tailcorrection: no
  O_com -      C1 [LENNARD_JONES] p_0/k_B:  39.94594 [K], p_1: 3.27450 [A], shift/k_B:  -0.06593801 [K], tailcorrection: no
  O_com -      C2 [LENNARD_JONES] p_0/k_B:  39.94594 [K], p_1: 3.27450 [A], shift/k_B:  -0.06593801 [K], tailcorrection: no
  O_com -      C3 [LENNARD_JONES] p_0/k_B:  39.94594 [K], p_1: 3.27450 [A], shift/k_B:  -0.06593801 [K], tailcorrection: no
  O_com -      C4 [LENNARD_JONES] p_0/k_B:  39.94594 [K], p_1: 3.27450 [A], shift/k_B:  -0.06593801 [K], tailcorrection: no
  O_com -      C5 [LENNARD_JONES] p_0/k_B:  39.94594 [K], p_1: 3.27450 [A], shift/k_B:  -0.06593801 [K], tailcorrection: no
  O_com -      C6 [LENNARD_JONES] p_0/k_B:  39.94594 [K], p_1: 3.27450 [A], shift/k_B:  -0.06593801 [K], tailcorrection: no
  O_com -      C7 [LENNARD_JONES] p_0/k_B:  39.94594 [K], p_1: 3.27450 [A], shift/k_B:  -0.06593801 [K], tailcorrection: no
  O_com -      C8 [LENNARD_JONES] p_0/k_B:  39.94594 [K], p_1: 3.27450 [A], shift/k_B:  -0.06593801 [K], tailcorrection: no
  O_com -      K1 [LENNARD_JONES] p_0/k_B:  23.06280 [K], p_1: 3.25710 [A], shift/k_B:  -0.03687206 [K], tailcorrection: no
  O_com -      K2 [LENNARD_JONES] p_0/k_B:  23.06280 [K], p_1: 3.25710 [A], shift/k_B:  -0.03687206 [K], tailcorrection: no
  O_com -      O1 [LENNARD_JONES] p_0/k_B:  30.19630 [K], p_1: 3.11810 [A], shift/k_B:  -0.03716488 [K], tailcorrection: no
  O_com -      O2 [LENNARD_JONES] p_0/k_B:  30.19630 [K], p_1: 3.11810 [A], shift/k_B:  -0.03716488 [K], tailcorrection: no
  O_com -      O3 [LENNARD_JONES] p_0/k_B:  30.19630 [K], p_1: 3.11810 [A], shift/k_B:  -0.03716488 [K], tailcorrection: no
  O_com -      O4 [LENNARD_JONES] p_0/k_B:  30.19630 [K], p_1: 3.11810 [A], shift/k_B:  -0.03716488 [K], tailcorrection: no
  O_com -      O5 [LENNARD_JONES] p_0/k_B:  30.19630 [K], p_1: 3.11810 [A], shift/k_B:  -0.03716488 [K], tailcorrection: no
  O_com -      O6 [LENNARD_JONES] p_0/k_B:  30.19630 [K], p_1: 3.11810 [A], shift/k_B:  -0.03716488 [K], tailcorrection: no
  O_com -      O7 [LENNARD_JONES] p_0/k_B:  30.19630 [K], p_1: 3.11810 [A], shift/k_B:  -0.03716488 [K], tailcorrection: no
  O_com -      O8 [LENNARD_JONES] p_0/k_B:  30.19630 [K], p_1: 3.11810 [A], shift/k_B:  -0.03716488 [K], tailcorrection: no
  O_com -      O9 [LENNARD_JONES] p_0/k_B:  30.19630 [K], p_1: 3.11810 [A], shift/k_B:  -0.03716488 [K], tailcorrection: no
  O_com -     O10 [LENNARD_JONES] p_0/k_B:  30.19630 [K], p_1: 3.11810 [A], shift/k_B:  -0.03716488 [K], tailcorrection: no
  O_com -     O11 [LENNARD_JONES] p_0/k_B:  30.19630 [K], p_1: 3.11810 [A], shift/k_B:  -0.03716488 [K], tailcorrection: no
  O_com -     O12 [LENNARD_JONES] p_0/k_B:  30.19630 [K], p_1: 3.11810 [A], shift/k_B:  -0.03716488 [K], tailcorrection: no
  O_com -     O13 [LENNARD_JONES] p_0/k_B:  30.19630 [K], p_1: 3.11810 [A], shift/k_B:  -0.03716488 [K], tailcorrection: no
  O_com -     O14 [LENNARD_JONES] p_0/k_B:  30.19630 [K], p_1: 3.11810 [A], shift/k_B:  -0.03716488 [K], tailcorrection: no
  O_com -     O15 [LENNARD_JONES] p_0/k_B:  30.19630 [K], p_1: 3.11810 [A], shift/k_B:  -0.03716488 [K], tailcorrection: no
  O_com -     O16 [LENNARD_JONES] p_0/k_B:  30.19630 [K], p_1: 3.11810 [A], shift/k_B:  -0.03716488 [K], tailcorrection: no
  O_com -     Tb1 [LENNARD_JONES] p_0/k_B:  10.31400 [K], p_1: 3.09630 [A], shift/k_B:  -0.01217109 [K], tailcorrection: no
  O_com -     Tb2 [LENNARD_JONES] p_0/k_B:  10.31400 [K], p_1: 3.09630 [A], shift/k_B:  -0.01217109 [K], tailcorrection: no
   N_n2 -    N_n2 [LENNARD_JONES] p_0/k_B:  34.72570 [K], p_1: 3.26070 [A], shift/k_B:  -0.05588738 [K], tailcorrection: no
   N_n2 -   N_com [LENNARD_JONES] p_0/k_B:  34.72570 [K], p_1: 3.26070 [A], shift/k_B:  -0.05588738 [K], tailcorrection: no
   N_n2 -      Ar [LENNARD_JONES] p_0/k_B:  56.86074 [K], p_1: 3.35335 [A], shift/k_B:  -0.10825587 [K], tailcorrection: no
   N_n2 -     CH4 [LENNARD_JONES] p_0/k_B:  42.83722 [K], p_1: 3.34580 [A], shift/k_B:  -0.08046177 [K], tailcorrection: no
   N_n2 -     CH3 [LENNARD_JONES] p_0/k_B:  42.83722 [K], p_1: 3.34580 [A], shift/k_B:  -0.08046177 [K], tailcorrection: no
   N_n2 -     CH2 [LENNARD_JONES] p_0/k_B:  42.83722 [K], p_1: 3.34580 [A], shift/k_B:  -0.08046177 [K], tailcorrection: no
   N_n2 -      CH [LENNARD_JONES] p_0/k_B:  42.83722 [K], p_1: 3.34580 [A], shift/k_B:  -0.08046177 [K], tailcorrection: no
   N_n2 -       C [LENNARD_JONES] p_0/k_B:  42.83722 [K], p_1: 3.34580 [A], shift/k_B:  -0.08046177 [K], tailcorrection: no
   N_n2 -      Hw [LENNARD_JONES] p_0/k_B:  27.73017 [K], p_1: 2.91590 [A], shift/k_B:  -0.02282819 [K], tailcorrection: no
   N_n2 -      Ow [LENNARD_JONES] p_0/k_B:  32.38190 [K], p_1: 3.18940 [A], shift/k_B:  -0.04564316 [K], tailcorrection: no
   N_n2 -      C1 [LENNARD_JONES] p_0/k_B:  42.83722 [K], p_1: 3.34580 [A], shift/k_B:  -0.08046177 [K], tailcorrection: no
   N_n2 -      C2 [LENNARD_JONES] p_0/k_B:  42.83722 [K], p_1: 3.34580 [A], shift/k_B:  -0.08046177 [K], tailcorrection: no
   N_n2 -      C3 [LENNARD_JONES] p_0/k_B:  42.83722 [K], p_1: 3.34580 [A], shift/k_B:  -0.08046177 [K], tailcorrection: no
   N_n2 -      C4 [LENNARD_JONES] p_0/k_B:  42.83722 [K], p_1: 3.34580 [A], shift/k_B:  -0.08046177 [K], tailcorrection: no
   N_n2 -      C5 [LENNARD_JONES] p_0/k_B:  42.83722 [K], p_1: 3.34580 [A], shift/k_B:  -0.08046177 [K], tailcorrection: no
   N_n2 -      C6 [LENNARD_JONES] p_0/k_B:  42.83722 [K], p_1: 3.34580 [A], shift/k_B:  -0.08046177 [K], tailcorrection: no
   N_n2 -      C7 [LENNARD_JONES] p_0/k_B:  42.83722 [K], p_1: 3.34580 [A], shift/k_B:  -0.08046177 [K], tailcorrection: no
   N_n2 -      C8 [LENNARD_JONES] p_0/k_B:  42.83722 [K], p_1: 3.34580 [A], shift/k_B:  -0.08046177 [K], tailcorrection: no
   N_n2 -      K1 [LENNARD_JONES] p_0/k_B:  24.73208 [K], p_1: 3.32840 [A], shift/k_B:  -0.04502446 [K], tailcorrection: no
   N_n2 -      K2 [LENNARD_JONES] p_0/k_B:  24.73208 [K], p_1: 3.32840 [A], shift/k_B:  -0.04502446 [K], tailcorrection: no
   N_n2 -      O1 [LENNARD_JONES] p_0/k_B:  32.38190 [K], p_1: 3.18940 [A], shift/k_B:  -0.04564316 [K], tailcorrection: no
   N_n2 -      O2 [LENNARD_JONES] p_0/k_B:  32.38190 [K], p_1: 3.18940 [A], shift/k_B:  -0.04564316 [K], tailcorrection: no
   N_n2 -      O3 [LENNARD_JONES] p_0/k_B:  32.38190 [K], p_1: 3.18940 [A], shift/k_B:  -0.04564316 [K], tailcorrection: no
   N_n2 -      O4 [LENNARD_JONES] p_0/k_B:  32.38190 [K], p_1: 3.18940 [A], shift/k_B:  -0.04564316 [K], tailcorrection: no
   N_n2 -      O5 [LENNARD_JONES] p_0/k_B:  32.38190 [K], p_1: 3.18940 [A], shift/k_B:  -0.04564316 [K], tailcorrection: no
   N_n2 -      O6 [LENNARD_JONES] p_0/k_B:  32.38190 [K], p_1: 3.18940 [A], shift/k_B:  -0.04564316 [K], tailcorrection: no
   N_n2 -      O7 [LENNARD_JONES] p_0/k_B:  32.38190 [K], p_1: 3.18940 [A], shift/k_B:  -0.04564316 [K], tailcorrection: no
   N_n2 -      O8 [LENNARD_JONES] p_0/k_B:  32.38190 [K], p_1: 3.18940 [A], shift/k_B:  -0.04564316 [K], tailcorrection: no
   N_n2 -      O9 [LENNARD_JONES] p_0/k_B:  32.38190 [K], p_1: 3.18940 [A], shift/k_B:  -0.04564316 [K], tailcorrection: no
   N_n2 -     O10 [LENNARD_JONES] p_0/k_B:  32.38190 [K], p_1: 3.18940 [A], shift/k_B:  -0.04564316 [K], tailcorrection: no
   N_n2 -     O11 [LENNARD_JONES] p_0/k_B:  32.38190 [K], p_1: 3.18940 [A], shift/k_B:  -0.04564316 [K], tailcorrection: no
   N_n2 -     O12 [LENNARD_JONES] p_0/k_B:  32.38190 [K], p_1: 3.18940 [A], shift/k_B:  -0.04564316 [K], tailcorrection: no
   N_n2 -     O13 [LENNARD_JONES] p_0/k_B:  32.38190 [K], p_1: 3.18940 [A], shift/k_B:  -0.04564316 [K], tailcorrection: no
   N_n2 -     O14 [LENNARD_JONES] p_0/k_B:  32.38190 [K], p_1: 3.18940 [A], shift/k_B:  -0.04564316 [K], tailcorrection: no
   N_n2 -     O15 [LENNARD_JONES] p_0/k_B:  32.38190 [K], p_1: 3.18940 [A], shift/k_B:  -0.04564316 [K], tailcorrection: no
   N_n2 -     O16 [LENNARD_JONES] p_0/k_B:  32.38190 [K], p_1: 3.18940 [A], shift/k_B:  -0.04564316 [K], tailcorrection: no
   N_n2 -     Tb1 [LENNARD_JONES] p_0/k_B:  11.06052 [K], p_1: 3.16760 [A], shift/k_B:  -0.01496178 [K], tailcorrection: no
   N_n2 -     Tb2 [LENNARD_JONES] p_0/k_B:  11.06052 [K], p_1: 3.16760 [A], shift/k_B:  -0.01496178 [K], tailcorrection: no
  N_com -   N_com [LENNARD_JONES] p_0/k_B:  34.72570 [K], p_1: 3.26070 [A], shift/k_B:  -0.05588738 [K], tailcorrection: no
  N_com -      Ar [LENNARD_JONES] p_0/k_B:  56.86074 [K], p_1: 3.35335 [A], shift/k_B:  -0.10825587 [K], tailcorrection: no
  N_com -     CH4 [LENNARD_JONES] p_0/k_B:  42.83722 [K], p_1: 3.34580 [A], shift/k_B:  -0.08046177 [K], tailcorrection: no
  N_com -     CH3 [LENNARD_JONES] p_0/k_B:  42.83722 [K], p_1: 3.34580 [A], shift/k_B:  -0.08046177 [K], tailcorrection: no
  N_com -     CH2 [LENNARD_JONES] p_0/k_B:  42.83722 [K], p_1: 3.34580 [A], shift/k_B:  -0.08046177 [K], tailcorrection: no
  N_com -      CH [LENNARD_JONES] p_0/k_B:  42.83722 [K], p_1: 3.34580 [A], shift/k_B:  -0.08046177 [K], tailcorrection: no
  N_com -       C [LENNARD_JONES] p_0/k_B:  42.83722 [K], p_1: 3.34580 [A], shift/k_B:  -0.08046177 [K], tailcorrection: no
  N_com -      Hw [LENNARD_JONES] p_0/k_B:  27.73017 [K], p_1: 2.91590 [A], shift/k_B:  -0.02282819 [K], tailcorrection: no
  N_com -      Ow [LENNARD_JONES] p_0/k_B:  32.38190 [K], p_1: 3.18940 [A], shift/k_B:  -0.04564316 [K], tailcorrection: no
  N_com -      C1 [LENNARD_JONES] p_0/k_B:  42.83722 [K], p_1: 3.34580 [A], shift/k_B:  -0.08046177 [K], tailcorrection: no
  N_com -      C2 [LENNARD_JONES] p_0/k_B:  42.83722 [K], p_1: 3.34580 [A], shift/k_B:  -0.08046177 [K], tailcorrection: no
  N_com -      C3 [LENNARD_JONES] p_0/k_B:  42.83722 [K], p_1: 3.34580 [A], shift/k_B:  -0.08046177 [K], tailcorrection: no
  N_com -      C4 [LENNARD_JONES] p_0/k_B:  42.83722 [K], p_1: 3.34580 [A], shift/k_B:  -0.08046177 [K], tailcorrection: no
  N_com -      C5 [LENNARD_JONES] p_0/k_B:  42.83722 [K], p_1: 3.34580 [A], shift/k_B:  -0.08046177 [K], tailcorrection: no
  N_com -      C6 [LENNARD_JONES] p_0/k_B:  42.83722 [K], p_1: 3.34580 [A], shift/k_B:  -0.08046177 [K], tailcorrection: no
  N_com -      C7 [LENNARD_JONES] p_0/k_B:  42.83722 [K], p_1: 3.34580 [A], shift/k_B:  -0.08046177 [K], tailcorrection: no
  N_com -      C8 [LENNARD_JONES] p_0/k_B:  42.83722 [K], p_1: 3.34580 [A], shift/k_B:  -0.08046177 [K], tailcorrection: no
  N_com -      K1 [LENNARD_JONES] p_0/k_B:  24.73208 [K], p_1: 3.32840 [A], shift/k_B:  -0.04502446 [K], tailcorrection: no
  N_com -      K2 [LENNARD_JONES] p_0/k_B:  24.73208 [K], p_1: 3.32840 [A], shift/k_B:  -0.04502446 [K], tailcorrection: no
  N_com -      O1 [LENNARD_JONES] p_0/k_B:  32.38190 [K], p_1: 3.18940 [A], shift/k_B:  -0.04564316 [K], tailcorrection: no
  N_com -      O2 [LENNARD_JONES] p_0/k_B:  32.38190 [K], p_1: 3.18940 [A], shift/k_B:  -0.04564316 [K], tailcorrection: no
  N_com -      O3 [LENNARD_JONES] p_0/k_B:  32.38190 [K], p_1: 3.18940 [A], shift/k_B:  -0.04564316 [K], tailcorrection: no
  N_com -      O4 [LENNARD_JONES] p_0/k_B:  32.38190 [K], p_1: 3.18940 [A], shift/k_B:  -0.04564316 [K], tailcorrection: no
  N_com -      O5 [LENNARD_JONES] p_0/k_B:  32.38190 [K], p_1: 3.18940 [A], shift/k_B:  -0.04564316 [K], tailcorrection: no
  N_com -      O6 [LENNARD_JONES] p_0/k_B:  32.38190 [K], p_1: 3.18940 [A], shift/k_B:  -0.04564316 [K], tailcorrection: no
  N_com -      O7 [LENNARD_JONES] p_0/k_B:  32.38190 [K], p_1: 3.18940 [A], shift/k_B:  -0.04564316 [K], tailcorrection: no
  N_com -      O8 [LENNARD_JONES] p_0/k_B:  32.38190 [K], p_1: 3.18940 [A], shift/k_B:  -0.04564316 [K], tailcorrection: no
  N_com -      O9 [LENNARD_JONES] p_0/k_B:  32.38190 [K], p_1: 3.18940 [A], shift/k_B:  -0.04564316 [K], tailcorrection: no
  N_com -     O10 [LENNARD_JONES] p_0/k_B:  32.38190 [K], p_1: 3.18940 [A], shift/k_B:  -0.04564316 [K], tailcorrection: no
  N_com -     O11 [LENNARD_JONES] p_0/k_B:  32.38190 [K], p_1: 3.18940 [A], shift/k_B:  -0.04564316 [K], tailcorrection: no
  N_com -     O12 [LENNARD_JONES] p_0/k_B:  32.38190 [K], p_1: 3.18940 [A], shift/k_B:  -0.04564316 [K], tailcorrection: no
  N_com -     O13 [LENNARD_JONES] p_0/k_B:  32.38190 [K], p_1: 3.18940 [A], shift/k_B:  -0.04564316 [K], tailcorrection: no
  N_com -     O14 [LENNARD_JONES] p_0/k_B:  32.38190 [K], p_1: 3.18940 [A], shift/k_B:  -0.04564316 [K], tailcorrection: no
  N_com -     O15 [LENNARD_JONES] p_0/k_B:  32.38190 [K], p_1: 3.18940 [A], shift/k_B:  -0.04564316 [K], tailcorrection: no
  N_com -     O16 [LENNARD_JONES] p_0/k_B:  32.38190 [K], p_1: 3.18940 [A], shift/k_B:  -0.04564316 [K], tailcorrection: no
  N_com -     Tb1 [LENNARD_JONES] p_0/k_B:  11.06052 [K], p_1: 3.16760 [A], shift/k_B:  -0.01496178 [K], tailcorrection: no
  N_com -     Tb2 [LENNARD_JONES] p_0/k_B:  11.06052 [K], p_1: 3.16760 [A], shift/k_B:  -0.01496178 [K], tailcorrection: no
     Ar -      Ar [LENNARD_JONES] p_0/k_B:  93.10520 [K], p_1: 3.44600 [A], shift/k_B:  -0.20873461 [K], tailcorrection: no
     Ar -     CH4 [LENNARD_JONES] p_0/k_B:  70.14274 [K], p_1: 3.43845 [A], shift/k_B:  -0.15519979 [K], tailcorrection: no
     Ar -     CH3 [LENNARD_JONES] p_0/k_B:  70.14274 [K], p_1: 3.43845 [A], shift/k_B:  -0.15519979 [K], tailcorrection: no
     Ar -     CH2 [LENNARD_JONES] p_0/k_B:  70.14274 [K], p_1: 3.43845 [A], shift/k_B:  -0.15519979 [K], tailcorrection: no
     Ar -      CH [LENNARD_JONES] p_0/k_B:  70.14274 [K], p_1: 3.43845 [A], shift/k_B:  -0.15519979 [K], tailcorrection: no
     Ar -       C [LENNARD_JONES] p_0/k_B:  70.14274 [K], p_1: 3.43845 [A], shift/k_B:  -0.15519979 [K], tailcorrection: no
     Ar -      Hw [LENNARD_JONES] p_0/k_B:  45.40608 [K], p_1: 3.00855 [A], shift/k_B:  -0.04509434 [K], tailcorrection: no
     Ar -      Ow [LENNARD_JONES] p_0/k_B:  53.02294 [K], p_1: 3.28205 [A], shift/k_B:  -0.08874128 [K], tailcorrection: no
     Ar -      C1 [LENNARD_JONES] p_0/k_B:  70.14274 [K], p_1: 3.43845 [A], shift/k_B:  -0.15519979 [K], tailcorrection: no
     Ar -      C2 [LENNARD_JONES] p_0/k_B:  70.14274 [K], p_1: 3.43845 [A], shift/k_B:  -0.15519979 [K], tailcorrection: no
     Ar -      C3 [LENNARD_JONES] p_0/k_B:  70.14274 [K], p_1: 3.43845 [A], shift/k_B:  -0.15519979 [K], tailcorrection: no
     Ar -      C4 [LENNARD_JONES] p_0/k_B:  70.14274 [K], p_1: 3.43845 [A], shift/k_B:  -0.15519979 [K], tailcorrection: no
     Ar -      C5 [LENNARD_JONES] p_0/k_B:  70.14274 [K], p_1: 3.43845 [A], shift/k_B:  -0.15519979 [K], tailcorrection: no
     Ar -      C6 [LENNARD_JONES] p_0/k_B:  70.14274 [K], p_1: 3.43845 [A], shift/k_B:  -0.15519979 [K], tailcorrection: no
     Ar -      C7 [LENNARD_JONES] p_0/k_B:  70.14274 [K], p_1: 3.43845 [A], shift/k_B:  -0.15519979 [K], tailcorrection: no
     Ar -      C8 [LENNARD_JONES] p_0/k_B:  70.14274 [K], p_1: 3.43845 [A], shift/k_B:  -0.15519979 [K], tailcorrection: no
     Ar -      K1 [LENNARD_JONES] p_0/k_B:  40.49693 [K], p_1: 3.42105 [A], shift/k_B:  -0.08691965 [K], tailcorrection: no
     Ar -      K2 [LENNARD_JONES] p_0/k_B:  40.49693 [K], p_1: 3.42105 [A], shift/k_B:  -0.08691965 [K], tailcorrection: no
     Ar -      O1 [LENNARD_JONES] p_0/k_B:  53.02294 [K], p_1: 3.28205 [A], shift/k_B:  -0.08874128 [K], tailcorrection: no
     Ar -      O2 [LENNARD_JONES] p_0/k_B:  53.02294 [K], p_1: 3.28205 [A], shift/k_B:  -0.08874128 [K], tailcorrection: no
     Ar -      O3 [LENNARD_JONES] p_0/k_B:  53.02294 [K], p_1: 3.28205 [A], shift/k_B:  -0.08874128 [K], tailcorrection: no
     Ar -      O4 [LENNARD_JONES] p_0/k_B:  53.02294 [K], p_1: 3.28205 [A], shift/k_B:  -0.08874128 [K], tailcorrection: no
     Ar -      O5 [LENNARD_JONES] p_0/k_B:  53.02294 [K], p_1: 3.28205 [A], shift/k_B:  -0.08874128 [K], tailcorrection: no
     Ar -      O6 [LENNARD_JONES] p_0/k_B:  53.02294 [K], p_1: 3.28205 [A], shift/k_B:  -0.08874128 [K], tailcorrection: no
     Ar -      O7 [LENNARD_JONES] p_0/k_B:  53.02294 [K], p_1: 3.28205 [A], shift/k_B:  -0.08874128 [K], tailcorrection: no
     Ar -      O8 [LENNARD_JONES] p_0/k_B:  53.02294 [K], p_1: 3.28205 [A], shift/k_B:  -0.08874128 [K], tailcorrection: no
     Ar -      O9 [LENNARD_JONES] p_0/k_B:  53.02294 [K], p_1: 3.28205 [A], shift/k_B:  -0.08874128 [K], tailcorrection: no
     Ar -     O10 [LENNARD_JONES] p_0/k_B:  53.02294 [K], p_1: 3.28205 [A], shift/k_B:  -0.08874128 [K], tailcorrection: no
     Ar -     O11 [LENNARD_JONES] p_0/k_B:  53.02294 [K], p_1: 3.28205 [A], shift/k_B:  -0.08874128 [K], tailcorrection: no
     Ar -     O12 [LENNARD_JONES] p_0/k_B:  53.02294 [K], p_1: 3.28205 [A], shift/k_B:  -0.08874128 [K], tailcorrection: no
     Ar -     O13 [LENNARD_JONES] p_0/k_B:  53.02294 [K], p_1: 3.28205 [A], shift/k_B:  -0.08874128 [K], tailcorrection: no
     Ar -     O14 [LENNARD_JONES] p_0/k_B:  53.02294 [K], p_1: 3.28205 [A], shift/k_B:  -0.08874128 [K], tailcorrection: no
     Ar -     O15 [LENNARD_JONES] p_0/k_B:  53.02294 [K], p_1: 3.28205 [A], shift/k_B:  -0.08874128 [K], tailcorrection: no
     Ar -     O16 [LENNARD_JONES] p_0/k_B:  53.02294 [K], p_1: 3.28205 [A], shift/k_B:  -0.08874128 [K], tailcorrection: no
     Ar -     Tb1 [LENNARD_JONES] p_0/k_B:  18.11078 [K], p_1: 3.26025 [A], shift/k_B:  -0.02912329 [K], tailcorrection: no
     Ar -     Tb2 [LENNARD_JONES] p_0/k_B:  18.11078 [K], p_1: 3.26025 [A], shift/k_B:  -0.02912329 [K], tailcorrection: no
    CH4 -     CH4 [LENNARD_JONES] p_0/k_B:  52.84350 [K], p_1: 3.43090 [A], shift/k_B:  -0.11539186 [K], tailcorrection: no
    CH4 -     CH3 [LENNARD_JONES] p_0/k_B:  52.84350 [K], p_1: 3.43090 [A], shift/k_B:  -0.11539186 [K], tailcorrection: no
    CH4 -     CH2 [LENNARD_JONES] p_0/k_B:  52.84350 [K], p_1: 3.43090 [A], shift/k_B:  -0.11539186 [K], tailcorrection: no
    CH4 -      CH [LENNARD_JONES] p_0/k_B:  52.84350 [K], p_1: 3.43090 [A], shift/k_B:  -0.11539186 [K], tailcorrection: no
    CH4 -       C [LENNARD_JONES] p_0/k_B:  52.84350 [K], p_1: 3.43090 [A], shift/k_B:  -0.11539186 [K], tailcorrection: no
    CH4 -      Hw [LENNARD_JONES] p_0/k_B:  34.20762 [K], p_1: 3.00100 [A], shift/k_B:  -0.03346456 [K], tailcorrection: no
    CH4 -      Ow [LENNARD_JONES] p_0/k_B:  39.94594 [K], p_1: 3.27450 [A], shift/k_B:  -0.06593801 [K], tailcorrection: no
    CH4 -      C1 [LENNARD_JONES] p_0/k_B:  52.84350 [K], p_1: 3.43090 [A], shift/k_B:  -0.11539186 [K], tailcorrection: no
    CH4 -      C2 [LENNARD_JONES] p_0/k_B:  52.84350 [K], p_1: 3.43090 [A], shift/k_B:  -0.11539186 [K], tailcorrection: no
    CH4 -      C3 [LENNARD_JONES] p_0/k_B:  52.84350 [K], p_1: 3.43090 [A], shift/k_B:  -0.11539186 [K], tailcorrection: no
    CH4 -      C4 [LENNARD_JONES] p_0/k_B:  52.84350 [K], p_1: 3.43090 [A], shift/k_B:  -0.11539186 [K], tailcorrection: no
    CH4 -      C5 [LENNARD_JONES] p_0/k_B:  52.84350 [K], p_1: 3.43090 [A], shift/k_B:  -0.11539186 [K], tailcorrection: no
    CH4 -      C6 [LENNARD_JONES] p_0/k_B:  52.84350 [K], p_1: 3.43090 [A], shift/k_B:  -0.11539186 [K], tailcorrection: no
    CH4 -      C7 [LENNARD_JONES] p_0/k_B:  52.84350 [K], p_1: 3.43090 [A], shift/k_B:  -0.11539186 [K], tailcorrection: no
    CH4 -      C8 [LENNARD_JONES] p_0/k_B:  52.84350 [K], p_1: 3.43090 [A], shift/k_B:  -0.11539186 [K], tailcorrection: no
    CH4 -      K1 [LENNARD_JONES] p_0/k_B:  30.50921 [K], p_1: 3.41350 [A], shift/k_B:  -0.06462086 [K], tailcorrection: no
    CH4 -      K2 [LENNARD_JONES] p_0/k_B:  30.50921 [K], p_1: 3.41350 [A], shift/k_B:  -0.06462086 [K], tailcorrection: no
    CH4 -      O1 [LENNARD_JONES] p_0/k_B:  39.94594 [K], p_1: 3.27450 [A], shift/k_B:  -0.06593801 [K], tailcorrection: no
    CH4 -      O2 [LENNARD_JONES] p_0/k_B:  39.94594 [K], p_1: 3.27450 [A], shift/k_B:  -0.06593801 [K], tailcorrection: no
    CH4 -      O3 [LENNARD_JONES] p_0/k_B:  39.94594 [K], p_1: 3.27450 [A], shift/k_B:  -0.06593801 [K], tailcorrection: no
    CH4 -      O4 [LENNARD_JONES] p_0/k_B:  39.94594 [K], p_1: 3.27450 [A], shift/k_B:  -0.06593801 [K], tailcorrection: no
    CH4 -      O5 [LENNARD_JONES] p_0/k_B:  39.94594 [K], p_1: 3.27450 [A], shift/k_B:  -0.06593801 [K], tailcorrection: no
    CH4 -      O6 [LENNARD_JONES] p_0/k_B:  39.94594 [K], p_1: 3.27450 [A], shift/k_B:  -0.06593801 [K], tailcorrection: no
    CH4 -      O7 [LENNARD_JONES] p_0/k_B:  39.94594 [K], p_1: 3.27450 [A], shift/k_B:  -0.06593801 [K], tailcorrection: no
    CH4 -      O8 [LENNARD_JONES] p_0/k_B:  39.94594 [K], p_1: 3.27450 [A], shift/k_B:  -0.06593801 [K], tailcorrection: no
    CH4 -      O9 [LENNARD_JONES] p_0/k_B:  39.94594 [K], p_1: 3.27450 [A], shift/k_B:  -0.06593801 [K], tailcorrection: no
    CH4 -     O10 [LENNARD_JONES] p_0/k_B:  39.94594 [K], p_1: 3.27450 [A], shift/k_B:  -0.06593801 [K], tailcorrection: no
    CH4 -     O11 [LENNARD_JONES] p_0/k_B:  39.94594 [K], p_1: 3.27450 [A], shift/k_B:  -0.06593801 [K], tailcorrection: no
    CH4 -     O12 [LENNARD_JONES] p_0/k_B:  39.94594 [K], p_1: 3.27450 [A], shift/k_B:  -0.06593801 [K], tailcorrection: no
    CH4 -     O13 [LENNARD_JONES] p_0/k_B:  39.94594 [K], p_1: 3.27450 [A], shift/k_B:  -0.06593801 [K], tailcorrection: no
    CH4 -     O14 [LENNARD_JONES] p_0/k_B:  39.94594 [K], p_1: 3.27450 [A], shift/k_B:  -0.06593801 [K], tailcorrection: no
    CH4 -     O15 [LENNARD_JONES] p_0/k_B:  39.94594 [K], p_1: 3.27450 [A], shift/k_B:  -0.06593801 [K], tailcorrection: no
    CH4 -     O16 [LENNARD_JONES] p_0/k_B:  39.94594 [K], p_1: 3.27450 [A], shift/k_B:  -0.06593801 [K], tailcorrection: no
    CH4 -     Tb1 [LENNARD_JONES] p_0/k_B:  13.64413 [K], p_1: 3.25270 [A], shift/k_B:  -0.02163766 [K], tailcorrection: no
    CH4 -     Tb2 [LENNARD_JONES] p_0/k_B:  13.64413 [K], p_1: 3.25270 [A], shift/k_B:  -0.02163766 [K], tailcorrection: no
    CH3 -     CH3 [LENNARD_JONES] p_0/k_B:  52.84350 [K], p_1: 3.43090 [A], shift/k_B:  -0.11539186 [K], tailcorrection: no
    CH3 -     CH2 [LENNARD_JONES] p_0/k_B:  52.84350 [K], p_1: 3.43090 [A], shift/k_B:  -0.11539186 [K], tailcorrection: no
    CH3 -      CH [LENNARD_JONES] p_0/k_B:  52.84350 [K], p_1: 3.43090 [A], shift/k_B:  -0.11539186 [K], tailcorrection: no
    CH3 -       C [LENNARD_JONES] p_0/k_B:  52.84350 [K], p_1: 3.43090 [A], shift/k_B:  -0.11539186 [K], tailcorrection: no
    CH3 -      Hw [LENNARD_JONES] p_0/k_B:  34.20762 [K], p_1: 3.00100 [A], shift/k_B:  -0.03346456 [K], tailcorrection: no
    CH3 -      Ow [LENNARD_JONES] p_0/k_B:  39.94594 [K], p_1: 3.27450 [A], shift/k_B:  -0.06593801 [K], tailcorrection: no
    CH3 -      C1 [LENNARD_JONES] p_0/k_B:  52.84350 [K], p_1: 3.43090 [A], shift/k_B:  -0.11539186 [K], tailcorrection: no
    CH3 -      C2 [LENNARD_JONES] p_0/k_B:  52.84350 [K], p_1: 3.43090 [A], shift/k_B:  -0.11539186 [K], tailcorrection: no
    CH3 -      C3 [LENNARD_JONES] p_0/k_B:  52.84350 [K], p_1: 3.43090 [A], shift/k_B:  -0.11539186 [K], tailcorrection: no
    CH3 -      C4 [LENNARD_JONES] p_0/k_B:  52.84350 [K], p_1: 3.43090 [A], shift/k_B:  -0.11539186 [K], tailcorrection: no
    CH3 -      C5 [LENNARD_JONES] p_0/k_B:  52.84350 [K], p_1: 3.43090 [A], shift/k_B:  -0.11539186 [K], tailcorrection: no
    CH3 -      C6 [LENNARD_JONES] p_0/k_B:  52.84350 [K], p_1: 3.43090 [A], shift/k_B:  -0.11539186 [K], tailcorrection: no
    CH3 -      C7 [LENNARD_JONES] p_0/k_B:  52.84350 [K], p_1: 3.43090 [A], shift/k_B:  -0.11539186 [K], tailcorrection: no
    CH3 -      C8 [LENNARD_JONES] p_0/k_B:  52.84350 [K], p_1: 3.43090 [A], shift/k_B:  -0.11539186 [K], tailcorrection: no
    CH3 -      K1 [LENNARD_JONES] p_0/k_B:  30.50921 [K], p_1: 3.41350 [A], shift/k_B:  -0.06462086 [K], tailcorrection: no
    CH3 -      K2 [LENNARD_JONES] p_0/k_B:  30.50921 [K], p_1: 3.41350 [A], shift/k_B:  -0.06462086 [K], tailcorrection: no
    CH3 -      O1 [LENNARD_JONES] p_0/k_B:  39.94594 [K], p_1: 3.27450 [A], shift/k_B:  -0.06593801 [K], tailcorrection: no
    CH3 -      O2 [LENNARD_JONES] p_0/k_B:  39.94594 [K], p_1: 3.27450 [A], shift/k_B:  -0.06593801 [K], tailcorrection: no
    CH3 -      O3 [LENNARD_JONES] p_0/k_B:  39.94594 [K], p_1: 3.27450 [A], shift/k_B:  -0.06593801 [K], tailcorrection: no
    CH3 -      O4 [LENNARD_JONES] p_0/k_B:  39.94594 [K], p_1: 3.27450 [A], shift/k_B:  -0.06593801 [K], tailcorrection: no
    CH3 -      O5 [LENNARD_JONES] p_0/k_B:  39.94594 [K], p_1: 3.27450 [A], shift/k_B:  -0.06593801 [K], tailcorrection: no
    CH3 -      O6 [LENNARD_JONES] p_0/k_B:  39.94594 [K], p_1: 3.27450 [A], shift/k_B:  -0.06593801 [K], tailcorrection: no
    CH3 -      O7 [LENNARD_JONES] p_0/k_B:  39.94594 [K], p_1: 3.27450 [A], shift/k_B:  -0.06593801 [K], tailcorrection: no
    CH3 -      O8 [LENNARD_JONES] p_0/k_B:  39.94594 [K], p_1: 3.27450 [A], shift/k_B:  -0.06593801 [K], tailcorrection: no
    CH3 -      O9 [LENNARD_JONES] p_0/k_B:  39.94594 [K], p_1: 3.27450 [A], shift/k_B:  -0.06593801 [K], tailcorrection: no
    CH3 -     O10 [LENNARD_JONES] p_0/k_B:  39.94594 [K], p_1: 3.27450 [A], shift/k_B:  -0.06593801 [K], tailcorrection: no
    CH3 -     O11 [LENNARD_JONES] p_0/k_B:  39.94594 [K], p_1: 3.27450 [A], shift/k_B:  -0.06593801 [K], tailcorrection: no
    CH3 -     O12 [LENNARD_JONES] p_0/k_B:  39.94594 [K], p_1: 3.27450 [A], shift/k_B:  -0.06593801 [K], tailcorrection: no
    CH3 -     O13 [LENNARD_JONES] p_0/k_B:  39.94594 [K], p_1: 3.27450 [A], shift/k_B:  -0.06593801 [K], tailcorrection: no
    CH3 -     O14 [LENNARD_JONES] p_0/k_B:  39.94594 [K], p_1: 3.27450 [A], shift/k_B:  -0.06593801 [K], tailcorrection: no
    CH3 -     O15 [LENNARD_JONES] p_0/k_B:  39.94594 [K], p_1: 3.27450 [A], shift/k_B:  -0.06593801 [K], tailcorrection: no
    CH3 -     O16 [LENNARD_JONES] p_0/k_B:  39.94594 [K], p_1: 3.27450 [A], shift/k_B:  -0.06593801 [K], tailcorrection: no
    CH3 -     Tb1 [LENNARD_JONES] p_0/k_B:  13.64413 [K], p_1: 3.25270 [A], shift/k_B:  -0.02163766 [K], tailcorrection: no
    CH3 -     Tb2 [LENNARD_JONES] p_0/k_B:  13.64413 [K], p_1: 3.25270 [A], shift/k_B:  -0.02163766 [K], tailcorrection: no
    CH2 -     CH2 [LENNARD_JONES] p_0/k_B:  52.84350 [K], p_1: 3.43090 [A], shift/k_B:  -0.11539186 [K], tailcorrection: no
    CH2 -      CH [LENNARD_JONES] p_0/k_B:  52.84350 [K], p_1: 3.43090 [A], shift/k_B:  -0.11539186 [K], tailcorrection: no
    CH2 -       C [LENNARD_JONES] p_0/k_B:  52.84350 [K], p_1: 3.43090 [A], shift/k_B:  -0.11539186 [K], tailcorrection: no
    CH2 -      Hw [LENNARD_JONES] p_0/k_B:  34.20762 [K], p_1: 3.00100 [A], shift/k_B:  -0.03346456 [K], tailcorrection: no
    CH2 -      Ow [LENNARD_JONES] p_0/k_B:  39.94594 [K], p_1: 3.27450 [A], shift/k_B:  -0.06593801 [K], tailcorrection: no
    CH2 -      C1 [LENNARD_JONES] p_0/k_B:  52.84350 [K], p_1: 3.43090 [A], shift/k_B:  -0.11539186 [K], tailcorrection: no
    CH2 -      C2 [LENNARD_JONES] p_0/k_B:  52.84350 [K], p_1: 3.43090 [A], shift/k_B:  -0.11539186 [K], tailcorrection: no
    CH2 -      C3 [LENNARD_JONES] p_0/k_B:  52.84350 [K], p_1: 3.43090 [A], shift/k_B:  -0.11539186 [K], tailcorrection: no
    CH2 -      C4 [LENNARD_JONES] p_0/k_B:  52.84350 [K], p_1: 3.43090 [A], shift/k_B:  -0.11539186 [K], tailcorrection: no
    CH2 -      C5 [LENNARD_JONES] p_0/k_B:  52.84350 [K], p_1: 3.43090 [A], shift/k_B:  -0.11539186 [K], tailcorrection: no
    CH2 -      C6 [LENNARD_JONES] p_0/k_B:  52.84350 [K], p_1: 3.43090 [A], shift/k_B:  -0.11539186 [K], tailcorrection: no
    CH2 -      C7 [LENNARD_JONES] p_0/k_B:  52.84350 [K], p_1: 3.43090 [A], shift/k_B:  -0.11539186 [K], tailcorrection: no
    CH2 -      C8 [LENNARD_JONES] p_0/k_B:  52.84350 [K], p_1: 3.43090 [A], shift/k_B:  -0.11539186 [K], tailcorrection: no
    CH2 -      K1 [LENNARD_JONES] p_0/k_B:  30.50921 [K], p_1: 3.41350 [A], shift/k_B:  -0.06462086 [K], tailcorrection: no
    CH2 -      K2 [LENNARD_JONES] p_0/k_B:  30.50921 [K], p_1: 3.41350 [A], shift/k_B:  -0.06462086 [K], tailcorrection: no
    CH2 -      O1 [LENNARD_JONES] p_0/k_B:  39.94594 [K], p_1: 3.27450 [A], shift/k_B:  -0.06593801 [K], tailcorrection: no
    CH2 -      O2 [LENNARD_JONES] p_0/k_B:  39.94594 [K], p_1: 3.27450 [A], shift/k_B:  -0.06593801 [K], tailcorrection: no
    CH2 -      O3 [LENNARD_JONES] p_0/k_B:  39.94594 [K], p_1: 3.27450 [A], shift/k_B:  -0.06593801 [K], tailcorrection: no
    CH2 -      O4 [LENNARD_JONES] p_0/k_B:  39.94594 [K], p_1: 3.27450 [A], shift/k_B:  -0.06593801 [K], tailcorrection: no
    CH2 -      O5 [LENNARD_JONES] p_0/k_B:  39.94594 [K], p_1: 3.27450 [A], shift/k_B:  -0.06593801 [K], tailcorrection: no
    CH2 -      O6 [LENNARD_JONES] p_0/k_B:  39.94594 [K], p_1: 3.27450 [A], shift/k_B:  -0.06593801 [K], tailcorrection: no
    CH2 -      O7 [LENNARD_JONES] p_0/k_B:  39.94594 [K], p_1: 3.27450 [A], shift/k_B:  -0.06593801 [K], tailcorrection: no
    CH2 -      O8 [LENNARD_JONES] p_0/k_B:  39.94594 [K], p_1: 3.27450 [A], shift/k_B:  -0.06593801 [K], tailcorrection: no
    CH2 -      O9 [LENNARD_JONES] p_0/k_B:  39.94594 [K], p_1: 3.27450 [A], shift/k_B:  -0.06593801 [K], tailcorrection: no
    CH2 -     O10 [LENNARD_JONES] p_0/k_B:  39.94594 [K], p_1: 3.27450 [A], shift/k_B:  -0.06593801 [K], tailcorrection: no
    CH2 -     O11 [LENNARD_JONES] p_0/k_B:  39.94594 [K], p_1: 3.27450 [A], shift/k_B:  -0.06593801 [K], tailcorrection: no
    CH2 -     O12 [LENNARD_JONES] p_0/k_B:  39.94594 [K], p_1: 3.27450 [A], shift/k_B:  -0.06593801 [K], tailcorrection: no
    CH2 -     O13 [LENNARD_JONES] p_0/k_B:  39.94594 [K], p_1: 3.27450 [A], shift/k_B:  -0.06593801 [K], tailcorrection: no
    CH2 -     O14 [LENNARD_JONES] p_0/k_B:  39.94594 [K], p_1: 3.27450 [A], shift/k_B:  -0.06593801 [K], tailcorrection: no
    CH2 -     O15 [LENNARD_JONES] p_0/k_B:  39.94594 [K], p_1: 3.27450 [A], shift/k_B:  -0.06593801 [K], tailcorrection: no
    CH2 -     O16 [LENNARD_JONES] p_0/k_B:  39.94594 [K], p_1: 3.27450 [A], shift/k_B:  -0.06593801 [K], tailcorrection: no
[...]

Average Cation Torsion energy:
==============================
	Block[ 0]            0.00000 [K]
	Block[ 1]            0.00000 [K]
	Block[ 2]            0.00000 [K]
	Block[ 3]            0.00000 [K]
	Block[ 4]            0.00000 [K]
	------------------------------------------------------------------------------
	Average              0.00000 [K] +/-            0.00000 [K]

Average Cation Improper Torsion energy:
=======================================
	Block[ 0]            0.00000 [K]
	Block[ 1]            0.00000 [K]
	Block[ 2]            0.00000 [K]
	Block[ 3]            0.00000 [K]
	Block[ 4]            0.00000 [K]
	------------------------------------------------------------------------------
	Average              0.00000 [K] +/-            0.00000 [K]

Average Cation Bond-Bond cross term energy:
=================================================
	Block[ 0]            0.00000 [K]
	Block[ 1]            0.00000 [K]
	Block[ 2]            0.00000 [K]
	Block[ 3]            0.00000 [K]
	Block[ 4]            0.00000 [K]
	------------------------------------------------------------------------------
	Average              0.00000 [K] +/-            0.00000 [K]

Average Cation Bend-Bend cross term energy:
===========================================
	Block[ 0]            0.00000 [K]
	Block[ 1]            0.00000 [K]
	Block[ 2]            0.00000 [K]
	Block[ 3]            0.00000 [K]
	Block[ 4]            0.00000 [K]
	------------------------------------------------------------------------------
	Average              0.00000 [K] +/-            0.00000 [K]

Average Cation Bond-Bend cross term energy:
==============================================
	Block[ 0]            0.00000 [K]
	Block[ 1]            0.00000 [K]
	Block[ 2]            0.00000 [K]
	Block[ 3]            0.00000 [K]
	Block[ 4]            0.00000 [K]
	------------------------------------------------------------------------------
	Average              0.00000 [K] +/-            0.00000 [K]

Average Cation Bond-Torsion cross term energy:
==============================================
	Block[ 0]            0.00000 [K]
	Block[ 1]            0.00000 [K]
	Block[ 2]            0.00000 [K]
	Block[ 3]            0.00000 [K]
	Block[ 4]            0.00000 [K]
	------------------------------------------------------------------------------
	Average              0.00000 [K] +/-            0.00000 [K]

Average Cation Bend-Torsion cross term energy:
==============================================
	Block[ 0]            0.00000 [K]
	Block[ 1]            0.00000 [K]
	Block[ 2]            0.00000 [K]
	Block[ 3]            0.00000 [K]
	Block[ 4]            0.00000 [K]
	------------------------------------------------------------------------------
	Average              0.00000 [K] +/-            0.00000 [K]

Average Cation Intra Van der Waals energy:
==========================================
	Block[ 0]            0.00000 [K]
	Block[ 1]            0.00000 [K]
	Block[ 2]            0.00000 [K]
	Block[ 3]            0.00000 [K]
	Block[ 4]            0.00000 [K]
	------------------------------------------------------------------------------
	Average              0.00000 [K] +/-            0.00000 [K]

Average Cation Intra charge-charge Coulomb energy:
====================================
	Block[ 0]            0.00000 [K]
	Block[ 1]            0.00000 [K]
	Block[ 2]            0.00000 [K]
	Block[ 3]            0.00000 [K]
	Block[ 4]            0.00000 [K]
	------------------------------------------------------------------------------
	Average              0.00000 [K] +/-            0.00000 [K]

Average Cation Intra charge-bonddipole Coulomb energy:
====================================
	Block[ 0]            0.00000 [K]
	Block[ 1]            0.00000 [K]
	Block[ 2]            0.00000 [K]
	Block[ 3]            0.00000 [K]
	Block[ 4]            0.00000 [K]
	------------------------------------------------------------------------------
	Average              0.00000 [K] +/-            0.00000 [K]

Average Cation Intra bonddipole-bonddipole Coulomb energy:
====================================
	Block[ 0]            0.00000 [K]
	Block[ 1]            0.00000 [K]
	Block[ 2]            0.00000 [K]
	Block[ 3]            0.00000 [K]
	Block[ 4]            0.00000 [K]
	------------------------------------------------------------------------------
	Average              0.00000 [K] +/-            0.00000 [K]

Average Host-Host energy:
=========================
	Block[ 0] 0.00000            Van der Waals: 0.00000            Coulomb: 0.00000            [K]
	Block[ 1] 0.00000            Van der Waals: 0.00000            Coulomb: 0.00000            [K]
	Block[ 2] 0.00000            Van der Waals: 0.00000            Coulomb: 0.00000            [K]
	Block[ 3] 0.00000            Van der Waals: 0.00000            Coulomb: 0.00000            [K]
	Block[ 4] 0.00000            Van der Waals: 0.00000            Coulomb: 0.00000            [K]
	------------------------------------------------------------------------------
	Average   0.00000            Van der Waals: 0.000000           Coulomb: 0.00000            [K]
	      +/- 0.00000                       +/- 0.000000                +/- 0.00000            [K]

Average Adsorbate-Adsorbate energy:
===================================
	Block[ 0] 0.00000            Van der Waals: 0.00000            Coulomb: 0.00000            [K]
	Block[ 1] 0.00000            Van der Waals: 0.00000            Coulomb: 0.00000            [K]
	Block[ 2] 0.00000            Van der Waals: 0.00000            Coulomb: 0.00000            [K]
	Block[ 3] 0.00000            Van der Waals: 0.00000            Coulomb: 0.00000            [K]
	Block[ 4] 0.00000            Van der Waals: 0.00000            Coulomb: 0.00000            [K]
	------------------------------------------------------------------------------
	Average   0.00000            Van der Waals: 0.000000           Coulomb: 0.00000            [K]
	      +/- 0.00000                       +/- 0.000000                +/- 0.00000            [K]

Average Cation-Cation energy:
=============================
	Block[ 0] 0.00000            Van der Waals: 0.00000            Coulomb: 0.00000            [K]
	Block[ 1] 0.00000            Van der Waals: 0.00000            Coulomb: 0.00000            [K]
	Block[ 2] 0.00000            Van der Waals: 0.00000            Coulomb: 0.00000            [K]
	Block[ 3] 0.00000            Van der Waals: 0.00000            Coulomb: 0.00000            [K]
	Block[ 4] 0.00000            Van der Waals: 0.00000            Coulomb: 0.00000            [K]
	------------------------------------------------------------------------------
	Average   0.00000            Van der Waals: 0.000000           Coulomb: 0.00000            [K]
	      +/- 0.00000                       +/- 0.000000                +/- 0.00000            [K]

Average Host-Adsorbate energy:
==============================
	Block[ 0] 0.00000            Van der Waals: 0.00000            Coulomb: 0.00000            [K]
	Block[ 1] 0.00000            Van der Waals: 0.00000            Coulomb: 0.00000            [K]
	Block[ 2] 0.00000            Van der Waals: 0.00000            Coulomb: 0.00000            [K]
	Block[ 3] 0.00000            Van der Waals: 0.00000            Coulomb: 0.00000            [K]
	Block[ 4] 0.00000            Van der Waals: 0.00000            Coulomb: 0.00000            [K]
	------------------------------------------------------------------------------
	Average   0.00000            Van der Waals: 0.000000           Coulomb: 0.00000            [K]
	      +/- 0.00000                       +/- 0.000000                +/- 0.00000            [K]

Average Host-Cation energy:
===========================
	Block[ 0] 0.00000            Van der Waals: 0.00000            Coulomb: 0.00000            [K]
	Block[ 1] 0.00000            Van der Waals: 0.00000            Coulomb: 0.00000            [K]
	Block[ 2] 0.00000            Van der Waals: 0.00000            Coulomb: 0.00000            [K]
	Block[ 3] 0.00000            Van der Waals: 0.00000            Coulomb: 0.00000            [K]
	Block[ 4] 0.00000            Van der Waals: 0.00000            Coulomb: 0.00000            [K]
	------------------------------------------------------------------------------
	Average   0.00000            Van der Waals: 0.000000           Coulomb: 0.00000            [K]
	      +/- 0.00000                       +/- 0.000000                +/- 0.00000            [K]

Average Adsorbate-Cation energy:
================================
	Block[ 0] 0.00000            Van der Waals: 0.00000            Coulomb: 0.00000            [K]
	Block[ 1] 0.00000            Van der Waals: 0.00000            Coulomb: 0.00000            [K]
	Block[ 2] 0.00000            Van der Waals: 0.00000            Coulomb: 0.00000            [K]
	Block[ 3] 0.00000            Van der Waals: 0.00000            Coulomb: 0.00000            [K]
	Block[ 4] 0.00000            Van der Waals: 0.00000            Coulomb: 0.00000            [K]
	------------------------------------------------------------------------------
	Average   0.00000            Van der Waals: 0.000000           Coulomb: 0.00000            [K]
	      +/- 0.00000                       +/- 0.000000                +/- 0.00000            [K]

Host polarization energy:
=======================
	Block[ 0]            0.00000 [K]
	Block[ 1]            0.00000 [K]
	Block[ 2]            0.00000 [K]
	Block[ 3]            0.00000 [K]
	Block[ 4]            0.00000 [K]
	------------------------------------------------------------------------------
	Average              0.00000 [K] +/-            0.00000 [K]

Adsorbate polarization energy:
=======================
	Block[ 0]            0.00000 [K]
	Block[ 1]            0.00000 [K]
	Block[ 2]            0.00000 [K]
	Block[ 3]            0.00000 [K]
	Block[ 4]            0.00000 [K]
	------------------------------------------------------------------------------
	Average              0.00000 [K] +/-            0.00000 [K]

Cation polarization energy:
=======================
	Block[ 0]            0.00000 [K]
	Block[ 1]            0.00000 [K]
	Block[ 2]            0.00000 [K]
	Block[ 3]            0.00000 [K]
	Block[ 4]            0.00000 [K]
	------------------------------------------------------------------------------
	Average              0.00000 [K] +/-            0.00000 [K]

Host back-polarization energy:
=======================
	Block[ 0]            0.00000 [K]
	Block[ 1]            0.00000 [K]
	Block[ 2]            0.00000 [K]
	Block[ 3]            0.00000 [K]
	Block[ 4]            0.00000 [K]
	------------------------------------------------------------------------------
	Average              0.00000 [K] +/-            0.00000 [K]

Adsorbate back-polarization energy:
=======================
	Block[ 0]            0.00000 [K]
	Block[ 1]            0.00000 [K]
	Block[ 2]            0.00000 [K]
	Block[ 3]            0.00000 [K]
	Block[ 4]            0.00000 [K]
	------------------------------------------------------------------------------
	Average              0.00000 [K] +/-            0.00000 [K]

Cation back-polarization energy:
=======================
	Block[ 0]            0.00000 [K]
	Block[ 1]            0.00000 [K]
	Block[ 2]            0.00000 [K]
	Block[ 3]            0.00000 [K]
	Block[ 4]            0.00000 [K]
	------------------------------------------------------------------------------
	Average              0.00000 [K] +/-            0.00000 [K]

Tail-correction energy:
=======================
	Block[ 0]            0.00000 [K]
	Block[ 1]            0.00000 [K]
	Block[ 2]            0.00000 [K]
	Block[ 3]            0.00000 [K]
	Block[ 4]            0.00000 [K]
	------------------------------------------------------------------------------
	Average              0.00000 [K] +/-            0.00000 [K]

Distance-constraints energy:
=======================
	Block[ 0]            0.00000 [K]
	Block[ 1]            0.00000 [K]
	Block[ 2]            0.00000 [K]
	Block[ 3]            0.00000 [K]
	Block[ 4]            0.00000 [K]
	------------------------------------------------------------------------------
	Average              0.00000 [K] +/-            0.00000 [K]

Angle-constraints energy:
=======================
	Block[ 0]            0.00000 [K]
	Block[ 1]            0.00000 [K]
	Block[ 2]            0.00000 [K]
	Block[ 3]            0.00000 [K]
	Block[ 4]            0.00000 [K]
	------------------------------------------------------------------------------
	Average              0.00000 [K] +/-            0.00000 [K]

Dihedral-constraints energy:
=======================
	Block[ 0]            0.00000 [K]
	Block[ 1]            0.00000 [K]
	Block[ 2]            0.00000 [K]
	Block[ 3]            0.00000 [K]
	Block[ 4]            0.00000 [K]
	------------------------------------------------------------------------------
	Average              0.00000 [K] +/-            0.00000 [K]

Inversion-bend constraints energy:
=======================
	Block[ 0]            0.00000 [K]
	Block[ 1]            0.00000 [K]
	Block[ 2]            0.00000 [K]
	Block[ 3]            0.00000 [K]
	Block[ 4]            0.00000 [K]
	------------------------------------------------------------------------------
	Average              0.00000 [K] +/-            0.00000 [K]

Out-of-plane-distance constraints energy:
=======================
	Block[ 0]            0.00000 [K]
	Block[ 1]            0.00000 [K]
	Block[ 2]            0.00000 [K]
	Block[ 3]            0.00000 [K]
	Block[ 4]            0.00000 [K]
	------------------------------------------------------------------------------
	Average              0.00000 [K] +/-            0.00000 [K]

Exclusion-constraints energy:
=======================
	Block[ 0]            0.00000 [K]
	Block[ 1]            0.00000 [K]
	Block[ 2]            0.00000 [K]
	Block[ 3]            0.00000 [K]
	Block[ 4]            0.00000 [K]
	------------------------------------------------------------------------------
	Average              0.00000 [K] +/-            0.00000 [K]

Total energy:
=============
	Block[ 0]            0.00000 [K]
	Block[ 1]            0.00000 [K]
	Block[ 2]            0.00000 [K]
	Block[ 3]            0.00000 [K]
	Block[ 4]            0.00000 [K]
	------------------------------------------------------------------------------
	Average              0.00000 [K] +/-            0.00000 [K]

Number of molecules:
====================

Component 0 [CO2]
-------------------------------------------------------------
	Block[ 0] 0.00000            [-]
	Block[ 1] 0.00000            [-]
	Block[ 2] 0.00000            [-]
	Block[ 3] 0.00000            [-]
	Block[ 4] 0.00000            [-]
	------------------------------------------------------------------------------
	Average loading absolute                              0.0000000000 +/-       0.0000000000 [-]
	Average loading absolute [molecules/unit cell]        0.0000000000 +/-       0.0000000000 [-]
	Average loading absolute [mol/kg framework]                  0.0000000000 +/-       0.0000000000 [-]
	Average loading absolute [milligram/gram framework]          0.0000000000 +/-       0.0000000000 [-]
	Average loading absolute [cm^3 (STP)/gr framework]           0.0000000000 +/-       0.0000000000 [-]
	Average loading absolute [cm^3 (STP)/cm^3 framework]         0.0000000000 +/-       0.0000000000 [-]

	Block[ 0] 0.00000            [-]
	Block[ 1] 0.00000            [-]
	Block[ 2] 0.00000            [-]
	Block[ 3] 0.00000            [-]
	Block[ 4] 0.00000            [-]
	------------------------------------------------------------------------------
	Average loading excess                              0.0000000000 +/-       0.0000000000 [-]
	Average loading excess [molecules/unit cell]        0.0000000000 +/-       0.0000000000 [-]
	Average loading excess [mol/kg framework]                    0.0000000000 +/-       0.0000000000 [-]
	Average loading excess [milligram/gram framework]            0.0000000000 +/-       0.0000000000 [-]
	Average loading excess [cm^3 (STP)/gr framework]             0.0000000000 +/-       0.0000000000 [-]
	Average loading excess [cm^3 (STP)/cm^3 framework]           0.0000000000 +/-       0.0000000000 [-]


Average Widom Rosenbluth factor:
================================
	Block[ 0] 20.5148 [-]
	Block[ 1] 20.311 [-]
	Block[ 2] 20.7305 [-]
	Block[ 3] 20.4252 [-]
	Block[ 4] 20.4777 [-]
	------------------------------------------------------------------------------
	[CO2] Average Widom Rosenbluth-weight:   20.4918 +/- 0.191152 [-]

Average Widom chemical potential:
=================================
	Block[ 0] -4044.14 [-]
	Block[ 1] -4041.16 [-]
	Block[ 2] -4047.25 [-]
	Block[ 3] -4042.83 [-]
	Block[ 4] -4043.6 [-]
	------------------------------------------------------------------------------
	[CO2] Average chemical potential:   -4043.8 +/- 2.774640 [K]

Average Widom Ideal-gas contribution:
=====================================
	Block[ 0] -3143.83 [-]
	Block[ 1] -3143.83 [-]
	Block[ 2] -3143.83 [-]
	Block[ 3] -3143.83 [-]
	Block[ 4] -3143.83 [-]
	------------------------------------------------------------------------------
	[CO2] Average Widom Ideal-gas chemical potential:   -3143.83 +/- 0.000060 [-]

Average Widom excess contribution:
==================================
	Block[ 0] -900.302 [-]
	Block[ 1] -897.327 [-]
	Block[ 2] -903.419 [-]
	Block[ 3] -898.998 [-]
	Block[ 4] -899.764 [-]
	------------------------------------------------------------------------------
	[CO2] Average Widom excess chemical potential:   -899.962 +/- 2.774640 [-]

Average Gibbs Widom Rosenbluth factor:
======================================
	Block[ 0] 0 [-]
	Block[ 1] 0 [-]
	Block[ 2] 0 [-]
	Block[ 3] 0 [-]
	Block[ 4] 0 [-]
	------------------------------------------------------------------------------
	[CO2] Average Gibbs Widom Rosenbluth-weight:   0 +/- 0.000000 [-]

Average Gibbs Widom chemical potential:
=======================================
	Block[ 0] 0 [-]
	Block[ 1] 0 [-]
	Block[ 2] 0 [-]
	Block[ 3] 0 [-]
	Block[ 4] 0 [-]
	------------------------------------------------------------------------------
	[CO2] Average Gibbs chemical potential:   0 +/- 0.000000 [K]

Average Gibbs Widom Ideal-gas contribution:
===========================================
	Block[ 0] 0 [-]
	Block[ 1] 0 [-]
	Block[ 2] 0 [-]
	Block[ 3] 0 [-]
	Block[ 4] 0 [-]
	------------------------------------------------------------------------------
	[CO2] Average Gibbs Ideal-gas chemical potential:   0 +/- 0.000000 [-]

Average Gibbs Widom excess contribution:
===========================================
	Block[ 0] 0 [-]
	Block[ 1] 0 [-]
	Block[ 2] 0 [-]
	Block[ 3] 0 [-]
	Block[ 4] 0 [-]
	------------------------------------------------------------------------------
	[CO2] Average Gibbs excess chemical potential:   0 +/- 0.000000 [-]

Average Henry coefficient:
==========================
	Block[ 0] 3.97484e-06 [mol/kg/Pa]
	Block[ 1] 3.93535e-06 [mol/kg/Pa]
	Block[ 2] 4.01663e-06 [mol/kg/Pa]
	Block[ 3] 3.95748e-06 [mol/kg/Pa]
	Block[ 4] 3.96767e-06 [mol/kg/Pa]
	------------------------------------------------------------------------------
	[CO2] Average Henry coefficient:  3.97039e-06 +/- 3.70366e-08 [mol/kg/Pa]

Average adsorption energy <U_gh>_1-<U_h>_0 obtained from Widom-insertion:
(Note: the total heat of adsorption is dH=<U_gh>_1-<U_h>_0 - <U_g> - RT)
=========================================================================
	Block[ 0] -2860.2678081999   [K]
	Block[ 1] -2865.1307432571   [K]
	Block[ 2] -2867.2654236257   [K]
	Block[ 3] -2861.2535402009   [K]
	Block[ 4] -2852.1924775443   [K]
	------------------------------------------------------------------------------
	[CO2] Average  <U_gh>_1-<U_h>_0:    -2861.2219985656 +/-       7.1920635516 [K]       (    -23.7895299325 +/-       0.0597981601 kJ/mol)

Simulation finished,  0 warnings


Mon Sep  8 14:06:41 2025
Simulation finished on Monday, September 08.
The end time was 02:06 PM.

